{
 "id": null,
 "schema_name": "qcschema_output",
 "schema_version": 1,
 "molecule": {
  "validated": true,
  "symbols": [
   "C",
   "C",
   "C",
   "C",
   "C",
   "C",
   "C",
   "C",
   "C",
   "C",
   "C",
   "N",
   "N",
   "O",
   "O",
   "H",
   "H",
   "H",
   "H",
   "H",
   "H",
   "H",
   "H",
   "H",
   "H",
   "H",
   "H",
   "H",
   "H"
  ],
  "geometry": [
   3.5554869353951855,
   -3.23644091877854,
   0.8987056250420546,
   1.9118674021602333,
   -2.1200908793427033,
   -0.8500015780296057,
   -0.0895377578599026,
   -3.5708411847611807,
   -1.8005413780393948,
   -0.4747640977128567,
   -6.044851730949312,
   -0.9774258106692284,
   1.1492816523146046,
   -7.1168631263035325,
   0.8023390412743362,
   3.1792594713516618,
   -5.710740593063869,
   1.7242154754131813,
   2.245761221541251,
   0.606135743631911,
   -1.6208019673426013,
   0.5894710746351033,
   2.4603425768356337,
   -0.03477939668547637,
   1.1230805995851318,
   5.183783743501322,
   -0.9055878720099462,
   -3.646733649982087,
   0.9813503144721908,
   1.3272709438562589,
   -6.402859519713694,
   0.7233157709454254,
   0.5788449118686887,
   2.9003529027692156,
   6.4266093730618,
   0.4517494915748972,
   -2.1008904362044465,
   2.0184924833594606,
   -0.4250720922807827,
   -2.8823526603172738,
   0.225894501297913,
   3.416123180331954,
   0.03665248361979522,
   6.059902349238332,
   -2.7759424149557046,
   -6.847648137314955,
   -1.289714984198526,
   0.40530569258952154,
   3.2907967764545596,
   8.236747793019846,
   -0.030142008773602413,
   -7.5839118919590796,
   1.5008927181443117,
   2.0856010304673585,
   -6.862550517540313,
   1.6648434670629062,
   -1.2028077764742098,
   -2.8259896888993694,
   2.8377152149111846,
   -2.004539203008694,
   0.9944960751044792,
   2.2142076387208767,
   1.9726955636496297,
   1.765243552085961,
   0.8727024006151176,
   -3.618098862765987,
   4.218451993085055,
   1.1801306056091,
   -1.3713845749479217,
   -1.3569543934909605,
   -2.743813884311314,
   -3.1906276953784207,
   5.141386673854155,
   -2.150908532996669,
   1.6280132978183732,
   -2.0421180639765826,
   -7.138797177441721,
   -1.729223114064617,
   4.456661419829641,
   -6.532635397356992,
   3.1048512723987964,
   0.8413810157892601,
   -9.03585732999245,
   1.4615057494520332,
   3.4748976750489122,
   5.761297275524113,
   2.171277433543366
  ],
  "name": "C11H14N2O2",
  "molecular_charge": 0.0,
  "molecular_multiplicity": 1,
  "masses": [
   12.0,
   12.0,
   12.0,
   12.0,
   12.0,
   12.0,
   12.0,
   12.0,
   12.0,
   12.0,
   12.0,
   14.00307400443,
   14.00307400443,
   15.99491461957,
   15.99491461957,
   1.00782503223,
   1.00782503223,
   1.00782503223,
   1.00782503223,
   1.00782503223,
   1.00782503223,
   1.00782503223,
   1.00782503223,
   1.00782503223,
   1.00782503223,
   1.00782503223,
   1.00782503223,
   1.00782503223,
   1.00782503223
  ],
  "real": [
   true,
   true,
   true,
   true,
   true,
   true,
   true,
   true,
   true,
   true,
   true,
   true,
   true,
   true,
   true,
   true,
   true,
   true,
   true,
   true,
   true,
   true,
   true,
   true,
   true,
   true,
   true,
   true,
   true
  ],
  "atom_labels": [
   "",
   "",
   "",
   "",
   "",
   "",
   "",
   "",
   "",
   "",
   "",
   "",
   "",
   "",
   "",
   "",
   "",
   "",
   "",
   "",
   "",
   "",
   "",
   "",
   "",
   "",
   "",
   "",
   ""
  ],
  "atomic_numbers": [
   6,
   6,
   6,
   6,
   6,
   6,
   6,
   6,
   6,
   6,
   6,
   7,
   7,
   8,
   8,
   1,
   1,
   1,
   1,
   1,
   1,
   1,
   1,
   1,
   1,
   1,
   1,
   1,
   1
  ],
  "mass_numbers": [
   12,
   12,
   12,
   12,
   12,
   12,
   12,
   12,
   12,
   12,
   12,
   14,
   14,
   16,
   16,
   1,
   1,
   1,
   1,
   1,
   1,
   1,
   1,
   1,
   1,
   1,
   1,
   1,
   1
  ],
  "fragments": [
   [
    0,
    1,
    2,
    3,
    4,
    5,
    6,
    7,
    8,
    9,
    10,
    11,
    12,
    13,
    14,
    15,
    16,
    17,
    18,
    19,
    20,
    21,
    22,
    23,
    24,
    25,
    26,
    27,
    28
   ]
  ],
  "fragment_charges": [
   0.0
  ],
  "fragment_multiplicities": [
   1
  ],
  "fix_com": false,
  "fix_orientation": false,
  "provenance": {
   "creator": "QCElemental",
   "version": "v0.19.0",
   "routine": "qcelemental.molparse.from_string"
  }
 },
 "driver": "energy",
 "model": {
  "method": "b97m-v",
  "basis": "pcseg-2"
 },
 "keywords": {},
 "protocols": {},
 "extras": {
  "qcvars": {
   "CURRENT DIPOLE X": 1.7003053485822657,
   "CURRENT DIPOLE Y": 1.1866919555523627,
   "CURRENT DIPOLE Z": -0.1290153761185641,
   "CURRENT ENERGY": -687.7923808810086,
   "CURRENT REFERENCE ENERGY": -687.7923808810086,
   "DFT FUNCTIONAL TOTAL ENERGY": -687.7923808810086,
   "DFT TOTAL ENERGY": -687.7923808810086,
   "DFT VV10 ENERGY": 0.41494743254084715,
   "DFT XC ENERGY": -96.4004563121847,
   "NUCLEAR REPULSION ENERGY": 980.0399976067333,
   "ONE-ELECTRON ENERGY": -2878.964740421217,
   "PCM POLARIZATION ENERGY": 0.0,
   "PE ENERGY": 0.0,
   "SCF DIPOLE X": 1.7003053485822657,
   "SCF DIPOLE Y": 1.1866919555523627,
   "SCF DIPOLE Z": -0.1290153761185641,
   "SCF ITERATION ENERGY": -687.7923808810086,
   "SCF ITERATIONS": 10.0,
   "SCF TOTAL ENERGY": -687.7923808810086,
   "TWO-ELECTRON ENERGY": 1307.1178708131188,
   "XC GRID RADIAL POINTS": 75.0,
   "XC GRID SPHERICAL POINTS": 302.0,
   "XC GRID TOTAL POINTS": 603193.0,
   "CURRENT DIPOLE": [
    0.6689515971644555,
    0.4668805398223776,
    -0.05075855462387891
   ],
   "SCF DIPOLE": [
    0.6689515971644555,
    0.4668805398223776,
    -0.05075855462387891
   ]
  }
 },
 "provenance": {
  "creator": "Psi4",
  "version": "1.4a2.dev923",
  "routine": "psi4.schema_runner.run_qcschema",
  "hostname": "bignimbus",
  "nthreads": 16,
  "qcengine_version": "v0.17.0",
  "wall_time": 131.01826906204224,
  "username": "ubuntu",
  "memory": 256.0,
  "cpu": "AMD EPYC Processor (with IBPB)"
 },
 "properties": {
  "calcinfo_nbasis": 646,
  "calcinfo_nmo": 646,
  "calcinfo_nalpha": 55,
  "calcinfo_nbeta": 55,
  "calcinfo_natom": 29,
  "nuclear_repulsion_energy": 980.0399976067333,
  "return_energy": -687.7923808810086,
  "scf_one_electron_energy": -2878.964740421217,
  "scf_two_electron_energy": 1307.1178708131188,
  "scf_vv10_energy": 0.41494743254084715,
  "scf_xc_energy": -96.4004563121847,
  "scf_dipole_moment": [
   0.6689515971644555,
   0.4668805398223776,
   -0.05075855462387891
  ],
  "scf_total_energy": -687.7923808810086,
  "scf_iterations": 10
 },
 "wavefunction": null,
 "return_result": -687.7923808810086,
 "stdout": "\n    -----------------------------------------------------------------------\n          Psi4: An Open-Source Ab Initio Electronic Structure Package\n                               Psi4 1.4a2.dev923 \n\n                         Git: Rev {master} 5de566e \n\n\n    D. G. A. Smith, L. A. Burns, A. C. Simmonett, R. M. Parrish,\n    M. C. Schieber, R. Galvelis, P. Kraus, H. Kruse, R. Di Remigio,\n    A. Alenaizan, A. M. James, S. Lehtola, J. P. Misiewicz, M. Scheurer,\n    R. A. Shaw, J. B. Schriber, Y. Xie, Z. L. Glick, D. A. Sirianni,\n    J. S. O'Brien, J. M. Waldrop, A. Kumar, E. G. Hohenstein,\n    B. P. Pritchard, B. R. Brooks, H. F. Schaefer III, A. Yu. Sokolov,\n    K. Patkowski, A. E. DePrince III, U. Bozkaya, R. A. King,\n    F. A. Evangelista, J. M. Turney, T. D. Crawford, C. D. Sherrill,\n    J. Chem. Phys. 152(18) 184108 (2020). https://doi.org/10.1063/5.0006002\n\n                            Additional Code Authors\n    E. T. Seidl, C. L. Janssen, E. F. Valeev, M. L. Leininger,\n    J. F. Gonthier, R. M. Richard, H. R. McAlexander, M. Saitow, X. Wang,\n    P. Verma, and M. H. Lechner\n\n             Previous Authors, Complete List of Code Contributors,\n                       and Citations for Specific Modules\n    https://github.com/psi4/psi4/blob/master/codemeta.json\n    https://github.com/psi4/psi4/graphs/contributors\n    http://psicode.org/psi4manual/master/introduction.html#citing-psifour\n\n    -----------------------------------------------------------------------\n\n\n    Psi4 started on: Saturday, 24 April 2021 07:47PM\n\n    Process ID: 3872380\n    Host:       bignimbus\n    PSIDATADIR: /home/ubuntu/pk/Applications/miniconda3/envs/psi4-1.4a2.dev923/share/psi4\n    Memory:     238.4 GiB\n    Threads:    16\n    \n  ==> Input QCSchema <==\n\n--------------------------------------------------------------------------\n{'driver': 'energy',\n 'extras': {},\n 'id': None,\n 'keywords': {},\n 'model': {'basis': 'pcseg-2', 'method': 'b97m-v'},\n 'molecule': {'atom_labels': ['', '', '', '', '', '', '', '', '', '', '', '', '', '', '', '', '', '', '', '', '', '',\n                              '', '', '', '', '', '', ''],\n              'atomic_numbers': [6, 6, 6, 6, 6, 6, 6, 6, 6, 6, 6, 7, 7, 8, 8, 1, 1, 1, 1, 1, 1, 1, 1, 1, 1, 1, 1, 1, 1],\n              'fix_com': False,\n              'fix_orientation': False,\n              'fragment_charges': [0.0],\n              'fragment_multiplicities': [1],\n              'fragments': [[0, 1, 2, 3, 4, 5, 6, 7, 8, 9, 10, 11, 12, 13, 14, 15, 16, 17, 18, 19, 20, 21, 22, 23, 24,\n                             25, 26, 27, 28]],\n              'geometry': [3.5554869353951926, -3.236440918778536, 0.8987056250420729, 1.9118674021602402,\n                           -2.1200908793426994, -0.8500015780295875, -0.0895377578598957, -3.5708411847611767,\n                           -1.8005413780393766, -0.47476409771284983, -6.044851730949308, -0.9774258106692102,\n                           1.1492816523146114, -7.116863126303528, 0.8023390412743544, 3.179259471351669,\n                           -5.710740593063864, 1.7242154754131995, 2.245761221541258, 0.6061357436319152,\n                           -1.620801967342583, 0.5894710746351102, 2.4603425768356377, -0.03477939668545815,\n                           1.1230805995851387, 5.183783743501326, -0.905587872009928, -3.64673364998208,\n                           0.981350314472195, 1.327270943856277, -6.402859519713687, 0.7233157709454296,\n                           0.5788449118687069, 2.9003529027692228, 6.426609373061805, 0.4517494915749154,\n                           -2.1008904362044394, 2.0184924833594646, -0.4250720922807645, -2.8823526603172667,\n                           0.22589450129791722, 3.4161231803319723, 0.03665248361980211, 6.059902349238336,\n                           -2.7759424149556864, -6.847648137314948, -1.2897149841985218, 0.40530569258953975,\n                           3.2907967764545667, 8.23674779301985, -0.030142008773584198, -7.5839118919590724,\n                           1.500892718144316, 2.0856010304673767, -6.862550517540306, 1.6648434670629104,\n                           -1.2028077764741916, -2.8259896888993623, 2.8377152149111886, -2.004539203008676,\n                           0.9944960751044861, 2.2142076387208807, 1.972695563649648, 1.765243552085968,\n                           0.8727024006151218, -3.6180988627659687, 4.218451993085062, 1.1801306056091043,\n                           -1.3713845749479034, -1.3569543934909536, -2.74381388431131, -3.1906276953784025,\n                           5.1413866738541625, -2.150908532996665, 1.6280132978183914, -2.0421180639765755,\n                           -7.138797177441717, -1.7292231140645988, 4.456661419829648, -6.532635397356987,\n                           3.1048512723988146, 0.8413810157892669, -9.035857329992446, 1.4615057494520514,\n                           3.4748976750489193, 5.761297275524117, 2.171277433543384],\n              'mass_numbers': [12, 12, 12, 12, 12, 12, 12, 12, 12, 12, 12, 14, 14, 16, 16, 1, 1, 1, 1, 1, 1, 1, 1, 1, 1,\n                               1, 1, 1, 1],\n              'masses': [12.0, 12.0, 12.0, 12.0, 12.0, 12.0, 12.0, 12.0, 12.0, 12.0, 12.0, 14.00307400443,\n                         14.00307400443, 15.99491461957, 15.99491461957, 1.00782503223, 1.00782503223, 1.00782503223,\n                         1.00782503223, 1.00782503223, 1.00782503223, 1.00782503223, 1.00782503223, 1.00782503223,\n                         1.00782503223, 1.00782503223, 1.00782503223, 1.00782503223, 1.00782503223],\n              'molecular_charge': 0.0,\n              'molecular_multiplicity': 1,\n              'name': 'C11H14N2O2',\n              'provenance': {'creator': 'QCElemental',\n                             'routine': 'qcelemental.molparse.from_string',\n                             'version': 'v0.19.0'},\n              'real': [True, True, True, True, True, True, True, True, True, True, True, True, True, True, True, True,\n                       True, True, True, True, True, True, True, True, True, True, True, True, True],\n              'symbols': ['C', 'C', 'C', 'C', 'C', 'C', 'C', 'C', 'C', 'C', 'C', 'N', 'N', 'O', 'O', 'H', 'H', 'H', 'H',\n                          'H', 'H', 'H', 'H', 'H', 'H', 'H', 'H', 'H', 'H'],\n              'validated': True},\n 'protocols': {},\n 'provenance': {'creator': 'QCElemental', 'routine': 'qcelemental.models.results', 'version': 'v0.17.0'},\n 'schema_name': 'qcschema_input',\n 'schema_version': 1}\n--------------------------------------------------------------------------\n\nScratch directory: /home/ubuntu/pk/scratch/tmp3_2yic_1_psi_scratch/\n\n*** tstart() called on bignimbus\n*** at Sat Apr 24 19:47:52 2021\n\n   => Loading Basis Set <=\n\n    Name: PCSEG-2\n    Role: ORBITAL\n    Keyword: BASIS\n    atoms 1-11  entry C          line   129 file /home/ubuntu/pk/Applications/miniconda3/envs/psi4-1.4a2.dev923/share/psi4/basis/pcseg-2.gbs \n    atoms 12-13 entry N          line   161 file /home/ubuntu/pk/Applications/miniconda3/envs/psi4-1.4a2.dev923/share/psi4/basis/pcseg-2.gbs \n    atoms 14-15 entry O          line   193 file /home/ubuntu/pk/Applications/miniconda3/envs/psi4-1.4a2.dev923/share/psi4/basis/pcseg-2.gbs \n    atoms 16-29 entry H          line    13 file /home/ubuntu/pk/Applications/miniconda3/envs/psi4-1.4a2.dev923/share/psi4/basis/pcseg-2.gbs \n\n\n         ---------------------------------------------------------\n                                   SCF\n               by Justin Turney, Rob Parrish, Andy Simmonett\n                          and Daniel G. A. Smith\n                              RKS Reference\n                       16 Threads, 244140 MiB Core\n         ---------------------------------------------------------\n\n  ==> Geometry <==\n\n    Molecular point group: c1\n    Full point group: C1\n\n    Geometry (in Bohr), charge = 0, multiplicity = 1:\n\n       Center              X                  Y                   Z               Mass       \n    ------------   -----------------  -----------------  -----------------  -----------------\n         C            3.555486935395    -3.236440918779     0.898705625042    12.000000000000\n         C            1.911867402160    -2.120090879343    -0.850001578030    12.000000000000\n         C           -0.089537757860    -3.570841184761    -1.800541378039    12.000000000000\n         C           -0.474764097713    -6.044851730949    -0.977425810669    12.000000000000\n         C            1.149281652315    -7.116863126304     0.802339041274    12.000000000000\n         C            3.179259471352    -5.710740593064     1.724215475413    12.000000000000\n         C            2.245761221541     0.606135743632    -1.620801967343    12.000000000000\n         C            0.589471074635     2.460342576836    -0.034779396685    12.000000000000\n         C            1.123080599585     5.183783743501    -0.905587872010    12.000000000000\n         C           -3.646733649982     0.981350314472     1.327270943856    12.000000000000\n         C           -6.402859519714     0.723315770945     0.578844911869    12.000000000000\n         N            2.900352902769     6.426609373062     0.451749491575    14.003074004430\n         N           -2.100890436204     2.018492483359    -0.425072092281    14.003074004430\n         O           -2.882352660317     0.225894501298     3.416123180332    15.994914619570\n         O            0.036652483620     6.059902349238    -2.775942414956    15.994914619570\n         H           -6.847648137315    -1.289714984199     0.405305692590     1.007825032230\n         H            3.290796776455     8.236747793020    -0.030142008774     1.007825032230\n         H           -7.583911891959     1.500892718144     2.085601030467     1.007825032230\n         H           -6.862550517540     1.664843467063    -1.202807776474     1.007825032230\n         H           -2.825989688899     2.837715214911    -2.004539203009     1.007825032230\n         H            0.994496075104     2.214207638721     1.972695563650     1.007825032230\n         H            1.765243552086     0.872702400615    -3.618098862766     1.007825032230\n         H            4.218451993085     1.180130605609    -1.371384574948     1.007825032230\n         H           -1.356954393491    -2.743813884311    -3.190627695378     1.007825032230\n         H            5.141386673854    -2.150908532997     1.628013297818     1.007825032230\n         H           -2.042118063977    -7.138797177442    -1.729223114065     1.007825032230\n         H            4.456661419830    -6.532635397357     3.104851272399     1.007825032230\n         H            0.841381015789    -9.035857329992     1.461505749452     1.007825032230\n         H            3.474897675049     5.761297275524     2.171277433543     1.007825032230\n\n  Running in c1 symmetry.\n\n  Rotational constants: A =      0.02825  B =      0.01408  C =      0.01109 [cm^-1]\n  Rotational constants: A =    846.77580  B =    422.03348  C =    332.43779 [MHz]\n  Nuclear repulsion =  980.039997606733323\n\n  Charge       = 0\n  Multiplicity = 1\n  Electrons    = 110\n  Nalpha       = 55\n  Nbeta        = 55\n\n  ==> Algorithm <==\n\n  SCF Algorithm Type is DF.\n  DIIS enabled.\n  MOM disabled.\n  Fractional occupation disabled.\n  Guess Type is SAD.\n  Energy threshold   = 1.00e-06\n  Density threshold  = 1.00e-06\n  Integral threshold = 0.00e+00\n\n  ==> Primary Basis <==\n\n  Basis Set: PCSEG-2\n    Blend: PCSEG-2\n    Number of shells: 234\n    Number of basis function: 646\n    Number of Cartesian functions: 735\n    Spherical Harmonics?: true\n    Max angular momentum: 3\n\n  ==> DFT Potential <==\n\n   => Composite Functional: B97M-V <= \n\n    B97M-V GGA Exchange-Correlation Functional\n\n    N. Mardirossian and M. Head-Gordon, J. Chem. Phys. 142, 074111 (2015)\n\n    Deriv               =              1\n    GGA                 =           TRUE\n    Meta                =           TRUE\n\n    Exchange Hybrid     =          FALSE\n    MP2 Hybrid          =          FALSE\n\n   => Exchange-Correlation Functionals <=\n\n    1.0000   B97M-V exchange-correlation functional\n\n   => LibXC Density Thresholds  <==\n\n    XC_MGGA_XC_B97M_V:  1.00E-23 \n\n   => VV10 Non-Local Parameters <=\n\n    VV10 B              =     6.0000E+00\n    VV10 C              =     1.0000E-02\n\n   => Molecular Quadrature <=\n\n    Radial Scheme          =       TREUTLER\n    Pruning Scheme         =           NONE\n    Nuclear Scheme         =       TREUTLER\n\n    BS radius alpha        =              1\n    Pruning alpha          =              1\n    Radial Points          =             75\n    Spherical Points       =            302\n    Total Points           =         603193\n    Total Blocks           =           4338\n    Max Points             =            256\n    Max Functions          =            493\n    Weights Tolerance      =       1.00E-15\n\n   => Loading Basis Set <=\n\n    Name: (PCSEG-2 AUX)\n    Role: JKFIT\n    Keyword: DF_BASIS_SCF\n    atoms 1-11  entry C          line   198 file /home/ubuntu/pk/Applications/miniconda3/envs/psi4-1.4a2.dev923/share/psi4/basis/def2-universal-jkfit.gbs \n    atoms 12-13 entry N          line   258 file /home/ubuntu/pk/Applications/miniconda3/envs/psi4-1.4a2.dev923/share/psi4/basis/def2-universal-jkfit.gbs \n    atoms 14-15 entry O          line   318 file /home/ubuntu/pk/Applications/miniconda3/envs/psi4-1.4a2.dev923/share/psi4/basis/def2-universal-jkfit.gbs \n    atoms 16-29 entry H          line    18 file /home/ubuntu/pk/Applications/miniconda3/envs/psi4-1.4a2.dev923/share/psi4/basis/def2-universal-jkfit.gbs \n\n  ==> Integral Setup <==\n\n  DFHelper Memory: AOs need 3.400 GiB; user supplied 165.513 GiB. Using in-core AOs.\n\n  ==> MemDFJK: Density-Fitted J/K Matrices <==\n\n    J tasked:                   Yes\n    K tasked:                    No\n    wK tasked:                   No\n    OpenMP threads:              16\n    Memory [MiB]:            169485\n    Algorithm:                 Core\n    Schwarz Cutoff:           1E-12\n    Mask sparsity (%):      24.4774\n    Fitting Condition:        1E-10\n\n   => Auxiliary Basis Set <=\n\n  Basis Set: (PCSEG-2 AUX)\n    Blend: DEF2-UNIVERSAL-JKFIT\n    Number of shells: 459\n    Number of basis function: 1385\n    Number of Cartesian functions: 1631\n    Spherical Harmonics?: true\n    Max angular momentum: 4\n\n  Cached 100.0% of DFT collocation blocks in 13.301 [GiB].\n\n  Minimum eigenvalue in the overlap matrix is 1.6147637048E-05.\n  Reciprocal condition number of the overlap matrix is 1.3723363319E-06.\n    Using symmetric orthogonalization.\n\n  ==> Pre-Iterations <==\n\n  SCF Guess: Superposition of Atomic Densities via on-the-fly atomic UHF (no occupation information).\n\n   -------------------------\n    Irrep   Nso     Nmo    \n   -------------------------\n     A        646     646 \n   -------------------------\n    Total     646     646\n   -------------------------\n\n  ==> Iterations <==\n\n                           Total Energy        Delta E     RMS |[F,P]|\n\n   @DF-RKS iter SAD:  -686.49248017966636   -6.86492e+02   0.00000e+00 \n   @DF-RKS iter   1:  -686.58397229025741   -9.14921e-02   2.40902e-03 DIIS\n   @DF-RKS iter   2:  -685.08720666363843    1.49677e+00   3.52640e-03 DIIS\n   @DF-RKS iter   3:  -687.70768097064104   -2.62047e+00   6.54405e-04 DIIS\n   @DF-RKS iter   4:  -687.75740614079632   -4.97252e-02   4.34937e-04 DIIS\n   @DF-RKS iter   5:  -687.78870049592456   -3.12944e-02   1.40263e-04 DIIS\n   @DF-RKS iter   6:  -687.79208990350423   -3.38941e-03   4.04101e-05 DIIS\n   @DF-RKS iter   7:  -687.79228090946992   -1.91006e-04   2.10695e-05 DIIS\n   @DF-RKS iter   8:  -687.79236666914551   -8.57597e-05   7.72381e-06 DIIS\n   @DF-RKS iter   9:  -687.79237990612694   -1.32370e-05   2.35784e-06 DIIS\n   @DF-RKS iter  10:  -687.79238088100863   -9.74882e-07   6.06905e-07 DIIS\n  Energy and wave function converged.\n\n\n  ==> Post-Iterations <==\n\n    Orbital Energies [Eh]\n    ---------------------\n\n    Doubly Occupied:                                                      \n\n       1A    -19.128830     2A    -19.098425     3A    -14.376816  \n       4A    -14.358704     5A    -10.298007     6A    -10.276286  \n       7A    -10.239787     8A    -10.196391     9A    -10.191921  \n      10A    -10.179727    11A    -10.179703    12A    -10.179238  \n      13A    -10.178629    14A    -10.178565    15A    -10.177807  \n      16A     -1.039311    17A     -1.008765    18A     -0.916655  \n      19A     -0.912190    20A     -0.838854    21A     -0.777058  \n      22A     -0.732266    23A     -0.726467    24A     -0.699974  \n      25A     -0.645857    26A     -0.588699    27A     -0.583747  \n      28A     -0.564008    29A     -0.559916    30A     -0.535831  \n      31A     -0.490332    32A     -0.472131    33A     -0.458412  \n      34A     -0.444706    35A     -0.437903    36A     -0.428698  \n      37A     -0.423032    38A     -0.407122    39A     -0.400758  \n      40A     -0.393607    41A     -0.382350    42A     -0.374284  \n      43A     -0.367173    44A     -0.362336    45A     -0.350009  \n      46A     -0.336125    47A     -0.325181    48A     -0.317177  \n      49A     -0.314707    50A     -0.272032    51A     -0.253156  \n      52A     -0.239787    53A     -0.234169    54A     -0.223437  \n      55A     -0.219668  \n\n    Virtual:                                                              \n\n      56A     -0.040414    57A     -0.034284    58A     -0.022781  \n      59A     -0.013797    60A     -0.003175    61A      0.002542  \n      62A      0.015105    63A      0.028529    64A      0.030316  \n      65A      0.040193    66A      0.048513    67A      0.056061  \n      68A      0.066402    69A      0.077886    70A      0.081067  \n      71A      0.085062    72A      0.091524    73A      0.096399  \n      74A      0.103385    75A      0.114675    76A      0.119416  \n      77A      0.128041    78A      0.139721    79A      0.148361  \n      80A      0.155054    81A      0.155852    82A      0.171055  \n      83A      0.172171    84A      0.177475    85A      0.183518  \n      86A      0.187711    87A      0.191577    88A      0.196153  \n      89A      0.201390    90A      0.211400    91A      0.221142  \n      92A      0.227700    93A      0.234915    94A      0.243552  \n      95A      0.244846    96A      0.251294    97A      0.260166  \n      98A      0.263245    99A      0.268818   100A      0.273940  \n     101A      0.278014   102A      0.283998   103A      0.290983  \n     104A      0.292655   105A      0.301684   106A      0.306576  \n     107A      0.312270   108A      0.314051   109A      0.315075  \n     110A      0.322931   111A      0.326351   112A      0.329148  \n     113A      0.334832   114A      0.337305   115A      0.341761  \n     116A      0.347246   117A      0.350437   118A      0.354515  \n     119A      0.362159   120A      0.365486   121A      0.369949  \n     122A      0.378520   123A      0.381334   124A      0.385888  \n     125A      0.401052   126A      0.413738   127A      0.420260  \n     128A      0.425416   129A      0.439095   130A      0.439360  \n     131A      0.449003   132A      0.455072   133A      0.459688  \n     134A      0.462169   135A      0.473481   136A      0.481286  \n     137A      0.488297   138A      0.506266   139A      0.508887  \n     140A      0.520638   141A      0.530476   142A      0.541115  \n     143A      0.554907   144A      0.557962   145A      0.566152  \n     146A      0.572595   147A      0.577743   148A      0.594252  \n     149A      0.610087   150A      0.619795   151A      0.631986  \n     152A      0.635960   153A      0.655390   154A      0.660631  \n     155A      0.665356   156A      0.669986   157A      0.677502  \n     158A      0.682436   159A      0.701940   160A      0.708034  \n     161A      0.726118   162A      0.739309   163A      0.755310  \n     164A      0.761269   165A      0.780133   166A      0.787007  \n     167A      0.802862   168A      0.822684   169A      0.833245  \n     170A      0.843898   171A      0.857910   172A      0.870088  \n     173A      0.886413   174A      0.909847   175A      0.918250  \n     176A      0.926247   177A      0.937550   178A      0.950599  \n     179A      0.965763   180A      0.981824   181A      0.990243  \n     182A      0.998537   183A      1.009736   184A      1.021708  \n     185A      1.030428   186A      1.037796   187A      1.041632  \n     188A      1.043966   189A      1.052199   190A      1.055604  \n     191A      1.078814   192A      1.089569   193A      1.091092  \n     194A      1.100752   195A      1.105051   196A      1.111974  \n     197A      1.121119   198A      1.122614   199A      1.129872  \n     200A      1.146747   201A      1.152157   202A      1.155684  \n     203A      1.161970   204A      1.165361   205A      1.183414  \n     206A      1.187376   207A      1.194192   208A      1.202799  \n     209A      1.213574   210A      1.221901   211A      1.235116  \n     212A      1.236978   213A      1.245999   214A      1.252313  \n     215A      1.262596   216A      1.275272   217A      1.281773  \n     218A      1.294363   219A      1.300437   220A      1.307763  \n     221A      1.321067   222A      1.326902   223A      1.339813  \n     224A      1.352756   225A      1.361313   226A      1.365553  \n     227A      1.377525   228A      1.386295   229A      1.388800  \n     230A      1.403537   231A      1.409125   232A      1.425065  \n     233A      1.434438   234A      1.445260   235A      1.453691  \n     236A      1.460474   237A      1.477457   238A      1.487635  \n     239A      1.500018   240A      1.522163   241A      1.524670  \n     242A      1.533896   243A      1.547888   244A      1.553363  \n     245A      1.560347   246A      1.568894   247A      1.585280  \n     248A      1.603400   249A      1.610476   250A      1.611695  \n     251A      1.622062   252A      1.630623   253A      1.648704  \n     254A      1.651173   255A      1.654013   256A      1.665356  \n     257A      1.674278   258A      1.679570   259A      1.686038  \n     260A      1.699928   261A      1.713527   262A      1.719089  \n     263A      1.732455   264A      1.748829   265A      1.757349  \n     266A      1.779444   267A      1.784652   268A      1.788802  \n     269A      1.806386   270A      1.814552   271A      1.831087  \n     272A      1.838870   273A      1.853572   274A      1.855058  \n     275A      1.874815   276A      1.874910   277A      1.894738  \n     278A      1.909882   279A      1.932903   280A      1.939612  \n     281A      1.940582   282A      1.967854   283A      1.974205  \n     284A      1.983841   285A      1.997476   286A      1.998987  \n     287A      2.003877   288A      2.010923   289A      2.028240  \n     290A      2.038656   291A      2.047547   292A      2.066175  \n     293A      2.073771   294A      2.079748   295A      2.094356  \n     296A      2.102823   297A      2.120623   298A      2.126811  \n     299A      2.135072   300A      2.145591   301A      2.161991  \n     302A      2.177953   303A      2.185413   304A      2.211506  \n     305A      2.225502   306A      2.248185   307A      2.253024  \n     308A      2.269961   309A      2.271283   310A      2.277000  \n     311A      2.286875   312A      2.315432   313A      2.334982  \n     314A      2.359187   315A      2.398001   316A      2.407511  \n     317A      2.413421   318A      2.436029   319A      2.470457  \n     320A      2.490222   321A      2.506023   322A      2.523888  \n     323A      2.562497   324A      2.575549   325A      2.589326  \n     326A      2.627773   327A      2.651046   328A      2.660210  \n     329A      2.682837   330A      2.705548   331A      2.723161  \n     332A      2.733622   333A      2.761172   334A      2.833965  \n     335A      2.868937   336A      2.899860   337A      2.963694  \n     338A      2.967949   339A      2.979298   340A      3.003952  \n     341A      3.022524   342A      3.046339   343A      3.099120  \n     344A      3.102055   345A      3.145359   346A      3.152406  \n     347A      3.188015   348A      3.210975   349A      3.234606  \n     350A      3.240177   351A      3.247637   352A      3.265400  \n     353A      3.270589   354A      3.277746   355A      3.288083  \n     356A      3.292650   357A      3.319529   358A      3.325641  \n     359A      3.335142   360A      3.354350   361A      3.374412  \n     362A      3.379080   363A      3.406813   364A      3.415463  \n     365A      3.433598   366A      3.437881   367A      3.449981  \n     368A      3.469632   369A      3.483110   370A      3.495983  \n     371A      3.509284   372A      3.530770   373A      3.542572  \n     374A      3.548474   375A      3.570408   376A      3.596041  \n     377A      3.598163   378A      3.606915   379A      3.617341  \n     380A      3.636682   381A      3.648156   382A      3.655327  \n     383A      3.685871   384A      3.703205   385A      3.715011  \n     386A      3.728660   387A      3.761028   388A      3.765901  \n     389A      3.781024   390A      3.784337   391A      3.803744  \n     392A      3.812682   393A      3.822234   394A      3.827174  \n     395A      3.840480   396A      3.858670   397A      3.881883  \n     398A      3.896148   399A      3.907442   400A      3.909797  \n     401A      3.941053   402A      3.947138   403A      3.962436  \n     404A      3.967245   405A      3.976433   406A      3.985452  \n     407A      4.016587   408A      4.029145   409A      4.044127  \n     410A      4.066153   411A      4.070646   412A      4.118046  \n     413A      4.127123   414A      4.136351   415A      4.142156  \n     416A      4.144746   417A      4.153359   418A      4.155057  \n     419A      4.169466   420A      4.182391   421A      4.188475  \n     422A      4.195523   423A      4.198805   424A      4.211138  \n     425A      4.222879   426A      4.227625   427A      4.237655  \n     428A      4.247992   429A      4.263899   430A      4.264854  \n     431A      4.281467   432A      4.290938   433A      4.298205  \n     434A      4.306573   435A      4.314976   436A      4.333864  \n     437A      4.337251   438A      4.339731   439A      4.346823  \n     440A      4.352657   441A      4.365843   442A      4.372712  \n     443A      4.380770   444A      4.385808   445A      4.395119  \n     446A      4.402252   447A      4.411380   448A      4.412459  \n     449A      4.419949   450A      4.428809   451A      4.442474  \n     452A      4.450571   453A      4.454377   454A      4.462130  \n     455A      4.465479   456A      4.488656   457A      4.493361  \n     458A      4.505991   459A      4.507682   460A      4.513277  \n     461A      4.522017   462A      4.528098   463A      4.537719  \n     464A      4.541755   465A      4.552202   466A      4.554302  \n     467A      4.561950   468A      4.569877   469A      4.581592  \n     470A      4.583010   471A      4.600944   472A      4.609961  \n     473A      4.622481   474A      4.631710   475A      4.635047  \n     476A      4.649188   477A      4.657961   478A      4.670605  \n     479A      4.674165   480A      4.687328   481A      4.694140  \n     482A      4.708744   483A      4.711524   484A      4.730418  \n     485A      4.735118   486A      4.747857   487A      4.752784  \n     488A      4.764531   489A      4.776953   490A      4.785213  \n     491A      4.787248   492A      4.796553   493A      4.802302  \n     494A      4.810252   495A      4.817196   496A      4.827705  \n     497A      4.832480   498A      4.844785   499A      4.853643  \n     500A      4.875129   501A      4.885173   502A      4.891167  \n     503A      4.893619   504A      4.899320   505A      4.910254  \n     506A      4.926475   507A      4.942366   508A      4.949486  \n     509A      4.955767   510A      4.960294   511A      4.968552  \n     512A      4.974587   513A      4.983708   514A      4.996000  \n     515A      5.010425   516A      5.028175   517A      5.045835  \n     518A      5.060353   519A      5.081194   520A      5.087592  \n     521A      5.102394   522A      5.111656   523A      5.130955  \n     524A      5.132687   525A      5.135570   526A      5.149259  \n     527A      5.150918   528A      5.164709   529A      5.173063  \n     530A      5.186515   531A      5.197031   532A      5.204837  \n     533A      5.236563   534A      5.249448   535A      5.261700  \n     536A      5.277691   537A      5.288703   538A      5.304705  \n     539A      5.309828   540A      5.336914   541A      5.357386  \n     542A      5.360174   543A      5.377356   544A      5.386443  \n     545A      5.387061   546A      5.405184   547A      5.420940  \n     548A      5.432244   549A      5.451767   550A      5.460167  \n     551A      5.487098   552A      5.500068   553A      5.504658  \n     554A      5.525672   555A      5.537448   556A      5.546222  \n     557A      5.556687   558A      5.565152   559A      5.569940  \n     560A      5.582576   561A      5.592500   562A      5.614378  \n     563A      5.630982   564A      5.642506   565A      5.675424  \n     566A      5.678202   567A      5.685663   568A      5.700967  \n     569A      5.713917   570A      5.734431   571A      5.745963  \n     572A      5.749587   573A      5.761108   574A      5.774842  \n     575A      5.807303   576A      5.813810   577A      5.822418  \n     578A      5.848979   579A      5.868312   580A      5.872191  \n     581A      5.886179   582A      5.893351   583A      5.908794  \n     584A      5.921507   585A      5.942859   586A      5.957832  \n     587A      5.963808   588A      5.969745   589A      6.006973  \n     590A      6.027255   591A      6.038817   592A      6.053424  \n     593A      6.065238   594A      6.068049   595A      6.079991  \n     596A      6.093904   597A      6.105727   598A      6.112716  \n     599A      6.130503   600A      6.135909   601A      6.140360  \n     602A      6.150839   603A      6.181263   604A      6.217188  \n     605A      6.224283   606A      6.242963   607A      6.263066  \n     608A      6.273771   609A      6.296829   610A      6.308987  \n     611A      6.326643   612A      6.350281   613A      6.373702  \n     614A      6.380410   615A      6.400288   616A      6.412580  \n     617A      6.433886   618A      6.439635   619A      6.455348  \n     620A      6.473702   621A      6.496215   622A      6.498894  \n     623A      6.551164   624A      6.586879   625A      6.613579  \n     626A      6.622769   627A      6.710776   628A      6.748184  \n     629A      6.798689   630A      6.825936   631A      6.840571  \n     632A      6.897000   633A      6.967781   634A      7.005057  \n     635A      7.020512   636A      7.116888   637A      7.206014  \n     638A      7.259375   639A      7.262733   640A      7.365668  \n     641A      7.380582   642A      7.594121   643A      7.782947  \n     644A      8.235731   645A      9.038878   646A     11.853922  \n\n    Final Occupation by Irrep:\n              A \n    DOCC [    55 ]\n\n  @DF-RKS Final Energy:  -687.79238088100863\n\n   => Energetics <=\n\n    Nuclear Repulsion Energy =            980.0399976067333228\n    One-Electron Energy =               -2878.9647404212169022\n    Two-Electron Energy =                1307.1178708131187705\n    DFT Exchange-Correlation Energy =     -96.4004563121847013\n    Empirical Dispersion Energy =           0.0000000000000000\n    VV10 Nonlocal Energy =                  0.4149474325408471\n    Total Energy =                       -687.7923808810086257\n\nComputation Completed\n\n\nProperties will be evaluated at   0.000000,   0.000000,   0.000000 [a0]\n\nProperties computed using the SCF density matrix\n\n  Nuclear Dipole Moment: [e a0]\n     X:    -1.6633      Y:    -2.2905      Z:    -0.1560\n\n  Electronic Dipole Moment: [e a0]\n     X:     2.3323      Y:     2.7574      Z:     0.1052\n\n  Dipole Moment: [e a0]\n     X:     0.6690      Y:     0.4669      Z:    -0.0508     Total:     0.8173\n\n  Dipole Moment: [D]\n     X:     1.7003      Y:     1.1867      Z:    -0.1290     Total:     2.0775\n\n\n*** tstop() called on bignimbus at Sat Apr 24 19:49:57 2021\nModule time:\n\tuser time   =    1845.97 seconds =      30.77 minutes\n\tsystem time =      32.06 seconds =       0.53 minutes\n\ttotal time  =        125 seconds =       2.08 minutes\nTotal time:\n\tuser time   =    1845.97 seconds =      30.77 minutes\n\tsystem time =      32.06 seconds =       0.53 minutes\n\ttotal time  =        125 seconds =       2.08 minutes\n\n    Psi4 stopped on: Saturday, 24 April 2021 07:49PM\n    Psi4 wall time for execution: 0:02:04.89\n\n*** Psi4 exiting successfully. Buy a developer a beer!\n",
 "stderr": null,
 "success": true,
 "error": null,
 "tag": "b97m-v pcseg-2 phe_a"
}