{
 "id": null,
 "schema_name": "qcschema_output",
 "schema_version": 1,
 "molecule": {
  "validated": true,
  "symbols": [
   "C",
   "C",
   "C",
   "C",
   "C",
   "N",
   "N",
   "N",
   "N",
   "N",
   "H",
   "H",
   "H",
   "H",
   "H"
  ],
  "geometry": [
   -2.6005148446510584,
   0.05786205884492528,
   -0.05834799091184591,
   -0.1816654040650379,
   -1.05140717679882,
   0.03991776761196013,
   1.8611285375548743,
   0.6342285271095628,
   0.08527119462294801,
   -0.6465380309276636,
   3.967705412417172,
   0.03235886311012896,
   3.108347780357041,
   -3.3625422282337434,
   0.004012971228262096,
   -2.7857080049459246,
   2.5976539714602467,
   -0.05267881253547342,
   1.7553038745292358,
   3.1645718090975947,
   0.09849927750115343,
   0.6309168298818281,
   -3.543955936277695,
   -0.011104837775400235,
   3.9719526196912684,
   -0.9002290867621937,
   0.08716092074840669,
   -4.769920436676645,
   -1.3273071911156629,
   -0.11126032242466495,
   -0.9092099623663019,
   6.004830175660711,
   0.019130780231924428,
   4.406589628546569,
   -4.938573816865572,
   -0.07157607379005133,
   5.787979426256241,
   -0.31630371399572466,
   -0.04700963415909916,
   -6.351621203684847,
   -0.38811330676312217,
   -0.6366041853019416,
   -4.6414190601455125,
   -3.160341532809756,
   -0.6403836375528572
  ],
  "name": "C5H5N5",
  "molecular_charge": 0.0,
  "molecular_multiplicity": 1,
  "masses": [
   12.0,
   12.0,
   12.0,
   12.0,
   12.0,
   14.00307400443,
   14.00307400443,
   14.00307400443,
   14.00307400443,
   14.00307400443,
   1.00782503223,
   1.00782503223,
   1.00782503223,
   1.00782503223,
   1.00782503223
  ],
  "real": [
   true,
   true,
   true,
   true,
   true,
   true,
   true,
   true,
   true,
   true,
   true,
   true,
   true,
   true,
   true
  ],
  "atom_labels": [
   "",
   "",
   "",
   "",
   "",
   "",
   "",
   "",
   "",
   "",
   "",
   "",
   "",
   "",
   ""
  ],
  "atomic_numbers": [
   6,
   6,
   6,
   6,
   6,
   7,
   7,
   7,
   7,
   7,
   1,
   1,
   1,
   1,
   1
  ],
  "mass_numbers": [
   12,
   12,
   12,
   12,
   12,
   14,
   14,
   14,
   14,
   14,
   1,
   1,
   1,
   1,
   1
  ],
  "fragments": [
   [
    0,
    1,
    2,
    3,
    4,
    5,
    6,
    7,
    8,
    9,
    10,
    11,
    12,
    13,
    14
   ]
  ],
  "fragment_charges": [
   0.0
  ],
  "fragment_multiplicities": [
   1
  ],
  "fix_com": false,
  "fix_orientation": false,
  "provenance": {
   "creator": "QCElemental",
   "version": "v0.19.0",
   "routine": "qcelemental.molparse.from_string"
  }
 },
 "driver": "energy",
 "model": {
  "method": "dsd-pbep86-nl",
  "basis": "pcseg-1"
 },
 "keywords": {
  "guess": "SAP",
  "freeze_core": "true",
  "dft_vv10_postscf": "true"
 },
 "protocols": {},
 "extras": {
  "qcvars": {
   "CURRENT DIPOLE X": 1.726728291899773,
   "CURRENT DIPOLE Y": -1.9013643609617612,
   "CURRENT DIPOLE Z": -1.066751902100045,
   "CURRENT ENERGY": -466.1251175652058,
   "CURRENT REFERENCE ENERGY": -465.39947987627613,
   "DFT FUNCTIONAL TOTAL ENERGY": -465.39947987627613,
   "DFT TOTAL ENERGY": -466.1251175652058,
   "DFT VV10 ENERGY": 0.09378867319589541,
   "DFT XC ENERGY": -19.93236127856645,
   "DOUBLE-HYBRID CORRECTION ENERGY": -0.7256376889296766,
   "DSD-PBEP86-NL DOUBLE-HYBRID CORRECTION ENERGY": -0.7256376889296766,
   "DSD-PBEP86-NL TOTAL ENERGY": -466.1251175652058,
   "NUCLEAR REPULSION ENERGY": 501.2235939031376,
   "ONE-ELECTRON ENERGY": -1624.9559281308912,
   "PCM POLARIZATION ENERGY": 0.0,
   "PE ENERGY": 0.0,
   "SCF DIPOLE X": 1.726728291899773,
   "SCF DIPOLE Y": -1.9013643609617612,
   "SCF DIPOLE Z": -1.066751902100045,
   "SCF ITERATION ENERGY": -465.4933710504547,
   "SCF ITERATIONS": 11.0,
   "SCF TOTAL ENERGY": -465.39947987627613,
   "TWO-ELECTRON ENERGY": 678.1714269568481,
   "XC GRID RADIAL POINTS": 75.0,
   "XC GRID SPHERICAL POINTS": 302.0,
   "XC GRID TOTAL POINTS": 314395.0,
   "CURRENT DIPOLE": [
    0.6793471829624833,
    -0.7480542992571815,
    -0.41969249187097973
   ],
   "SCF DIPOLE": [
    0.6793471829624833,
    -0.7480542992571815,
    -0.41969249187097973
   ]
  }
 },
 "provenance": {
  "creator": "Psi4",
  "version": "1.4a2.dev923",
  "routine": "psi4.schema_runner.run_qcschema",
  "username": "ubuntu",
  "nthreads": 32,
  "hostname": "bignimbus",
  "wall_time": 10.622324466705322,
  "cpu": "AMD EPYC Processor (with IBPB)",
  "memory": 200.0,
  "qcengine_version": "v0.17.0"
 },
 "properties": {
  "calcinfo_nbasis": 165,
  "calcinfo_nmo": 165,
  "calcinfo_nalpha": 35,
  "calcinfo_nbeta": 35,
  "calcinfo_natom": 15,
  "nuclear_repulsion_energy": 501.2235939031376,
  "return_energy": -466.1251175652058,
  "scf_one_electron_energy": -1624.9559281308912,
  "scf_two_electron_energy": 678.1714269568481,
  "scf_vv10_energy": 0.09378867319589541,
  "scf_xc_energy": -19.93236127856645,
  "scf_dipole_moment": [
   0.6793471829624833,
   -0.7480542992571815,
   -0.41969249187097973
  ],
  "scf_total_energy": -465.39947987627613,
  "scf_iterations": 11
 },
 "wavefunction": null,
 "return_result": -466.1251175652058,
 "stdout": "\n    -----------------------------------------------------------------------\n          Psi4: An Open-Source Ab Initio Electronic Structure Package\n                               Psi4 1.4a2.dev923 \n\n                         Git: Rev {master} 5de566e \n\n\n    D. G. A. Smith, L. A. Burns, A. C. Simmonett, R. M. Parrish,\n    M. C. Schieber, R. Galvelis, P. Kraus, H. Kruse, R. Di Remigio,\n    A. Alenaizan, A. M. James, S. Lehtola, J. P. Misiewicz, M. Scheurer,\n    R. A. Shaw, J. B. Schriber, Y. Xie, Z. L. Glick, D. A. Sirianni,\n    J. S. O'Brien, J. M. Waldrop, A. Kumar, E. G. Hohenstein,\n    B. P. Pritchard, B. R. Brooks, H. F. Schaefer III, A. Yu. Sokolov,\n    K. Patkowski, A. E. DePrince III, U. Bozkaya, R. A. King,\n    F. A. Evangelista, J. M. Turney, T. D. Crawford, C. D. Sherrill,\n    J. Chem. Phys. 152(18) 184108 (2020). https://doi.org/10.1063/5.0006002\n\n                            Additional Code Authors\n    E. T. Seidl, C. L. Janssen, E. F. Valeev, M. L. Leininger,\n    J. F. Gonthier, R. M. Richard, H. R. McAlexander, M. Saitow, X. Wang,\n    P. Verma, and M. H. Lechner\n\n             Previous Authors, Complete List of Code Contributors,\n                       and Citations for Specific Modules\n    https://github.com/psi4/psi4/blob/master/codemeta.json\n    https://github.com/psi4/psi4/graphs/contributors\n    http://psicode.org/psi4manual/master/introduction.html#citing-psifour\n\n    -----------------------------------------------------------------------\n\n\n    Psi4 started on: Monday, 17 May 2021 02:58PM\n\n    Process ID: 2512928\n    Host:       bignimbus\n    PSIDATADIR: /home/ubuntu/pk/Applications/miniconda3/envs/psi4-1.4a2.dev923/share/psi4\n    Memory:     186.3 GiB\n    Threads:    32\n    \n  ==> Input QCSchema <==\n\n--------------------------------------------------------------------------\n{'driver': 'energy',\n 'extras': {},\n 'id': None,\n 'keywords': {'dft_vv10_postscf': 'true', 'freeze_core': 'true', 'guess': 'SAP'},\n 'model': {'basis': 'pcseg-1', 'method': 'dsd-pbep86-nl'},\n 'molecule': {'atom_labels': ['', '', '', '', '', '', '', '', '', '', '', '', '', '', ''],\n              'atomic_numbers': [6, 6, 6, 6, 6, 7, 7, 7, 7, 7, 1, 1, 1, 1, 1],\n              'fix_com': False,\n              'fix_orientation': False,\n              'fragment_charges': [0.0],\n              'fragment_multiplicities': [1],\n              'fragments': [[0, 1, 2, 3, 4, 5, 6, 7, 8, 9, 10, 11, 12, 13, 14]],\n              'geometry': [-2.600514844651058, 0.0578620588449254, -0.05834799091184806, -0.1816654040650374,\n                           -1.0514071767988198, 0.03991776761195798, 1.8611285375548747, 0.6342285271095629,\n                           0.08527119462294586, -0.6465380309276632, 3.967705412417172, 0.03235886311012681,\n                           3.1083477803570414, -3.3625422282337434, 0.004012971228259943, -2.785708004945924,\n                           2.5976539714602467, -0.05267881253547557, 1.7553038745292362, 3.1645718090975947,\n                           0.09849927750115128, 0.6309168298818285, -3.543955936277695, -0.011104837775402387,\n                           3.971952619691269, -0.9002290867621936, 0.08716092074840454, -4.769920436676644,\n                           -1.3273071911156626, -0.1112603224246671, -0.9092099623663015, 6.004830175660711,\n                           0.019130780231922273, 4.40658962854657, -4.938573816865572, -0.07157607379005348,\n                           5.787979426256242, -0.31630371399572454, -0.04700963415910131, -6.3516212036848465,\n                           -0.38811330676312206, -0.6366041853019437, -4.641419060145512, -3.160341532809756,\n                           -0.6403836375528593],\n              'mass_numbers': [12, 12, 12, 12, 12, 14, 14, 14, 14, 14, 1, 1, 1, 1, 1],\n              'masses': [12.0, 12.0, 12.0, 12.0, 12.0, 14.00307400443, 14.00307400443, 14.00307400443, 14.00307400443,\n                         14.00307400443, 1.00782503223, 1.00782503223, 1.00782503223, 1.00782503223, 1.00782503223],\n              'molecular_charge': 0.0,\n              'molecular_multiplicity': 1,\n              'name': 'C5H5N5',\n              'provenance': {'creator': 'QCElemental',\n                             'routine': 'qcelemental.molparse.from_string',\n                             'version': 'v0.19.0'},\n              'real': [True, True, True, True, True, True, True, True, True, True, True, True, True, True, True],\n              'symbols': ['C', 'C', 'C', 'C', 'C', 'N', 'N', 'N', 'N', 'N', 'H', 'H', 'H', 'H', 'H'],\n              'validated': True},\n 'protocols': {},\n 'provenance': {'creator': 'QCElemental', 'routine': 'qcelemental.models.results', 'version': 'v0.17.0'},\n 'schema_name': 'qcschema_input',\n 'schema_version': 1}\n--------------------------------------------------------------------------\n\nScratch directory: /home/ubuntu/pk/scratch/tmpzdnjaebw_psi_scratch/\n\n*** tstart() called on bignimbus\n*** at Mon May 17 14:58:47 2021\n\n   => Loading Basis Set <=\n\n    Name: PCSEG-1\n    Role: ORBITAL\n    Keyword: BASIS\n    atoms 1-5   entry C          line    90 file /home/ubuntu/pk/Applications/miniconda3/envs/psi4-1.4a2.dev923/share/psi4/basis/pcseg-1.gbs \n    atoms 6-10  entry N          line   111 file /home/ubuntu/pk/Applications/miniconda3/envs/psi4-1.4a2.dev923/share/psi4/basis/pcseg-1.gbs \n    atoms 11-15 entry H          line    13 file /home/ubuntu/pk/Applications/miniconda3/envs/psi4-1.4a2.dev923/share/psi4/basis/pcseg-1.gbs \n\n   => DSD-PBEP86-NL: Empirical Dispersion <=\n\n    Grimme's -NL (DFT plus VV10 correlation) \n    Hujo, W.; Grimme, S; (2011), J. Chem. Theory Comput.; 7:3866\n    Parametrisation from:    M. K. Kesharwani, A. Karton, J.M. L. Martin, J. Chem. Theory Comput. 12, 444-454, 2016\n\n         b =      12.800000\n         c =       0.009300\n\n\n         ---------------------------------------------------------\n                                   SCF\n               by Justin Turney, Rob Parrish, Andy Simmonett\n                          and Daniel G. A. Smith\n                              RKS Reference\n                       32 Threads, 190734 MiB Core\n         ---------------------------------------------------------\n\n  ==> Geometry <==\n\n    Molecular point group: c1\n    Full point group: C1\n\n    Geometry (in Bohr), charge = 0, multiplicity = 1:\n\n       Center              X                  Y                   Z               Mass       \n    ------------   -----------------  -----------------  -----------------  -----------------\n         C           -2.600514844651     0.057862058845    -0.058347990912    12.000000000000\n         C           -0.181665404065    -1.051407176799     0.039917767612    12.000000000000\n         C            1.861128537555     0.634228527110     0.085271194623    12.000000000000\n         C           -0.646538030928     3.967705412417     0.032358863110    12.000000000000\n         C            3.108347780357    -3.362542228234     0.004012971228    12.000000000000\n         N           -2.785708004946     2.597653971460    -0.052678812535    14.003074004430\n         N            1.755303874529     3.164571809098     0.098499277501    14.003074004430\n         N            0.630916829882    -3.543955936278    -0.011104837775    14.003074004430\n         N            3.971952619691    -0.900229086762     0.087160920748    14.003074004430\n         N           -4.769920436677    -1.327307191116    -0.111260322425    14.003074004430\n         H           -0.909209962366     6.004830175661     0.019130780232     1.007825032230\n         H            4.406589628547    -4.938573816866    -0.071576073790     1.007825032230\n         H            5.787979426256    -0.316303713996    -0.047009634159     1.007825032230\n         H           -6.351621203685    -0.388113306763    -0.636604185302     1.007825032230\n         H           -4.641419060146    -3.160341532810    -0.640383637553     1.007825032230\n\n  Running in c1 symmetry.\n\n  Rotational constants: A =      0.07881  B =      0.05206  C =      0.03137 [cm^-1]\n  Rotational constants: A =   2362.65971  B =   1560.84141  C =    940.48329 [MHz]\n  Nuclear repulsion =  501.223593903137612\n\n  Charge       = 0\n  Multiplicity = 1\n  Electrons    = 70\n  Nalpha       = 35\n  Nbeta        = 35\n\n  ==> Algorithm <==\n\n  SCF Algorithm Type is DF.\n  DIIS enabled.\n  MOM disabled.\n  Fractional occupation disabled.\n  Guess Type is SAP.\n  Energy threshold   = 1.00e-06\n  Density threshold  = 1.00e-06\n  Integral threshold = 0.00e+00\n\n  ==> Primary Basis <==\n\n  Basis Set: PCSEG-1\n    Blend: PCSEG-1\n    Number of shells: 75\n    Number of basis function: 165\n    Number of Cartesian functions: 175\n    Spherical Harmonics?: true\n    Max angular momentum: 2\n\n  ==> DFT Potential <==\n\n   => Composite Functional: DSD-PBEP86-NL <= \n\n    DSD-PBEP86-NL (D3BJ parameters) VV10 SCS Double Hybrid XC Functional\n\n    S. Kozuch, J.M.L. Martin, J. Comp. Chem., 34, 2327-2344, 2013\n\n\n    Deriv               =              1\n    GGA                 =           TRUE\n    Meta                =          FALSE\n\n    Exchange Hybrid     =           TRUE\n    MP2 Hybrid          =           TRUE\n\n   => Exchange Functionals <=\n\n    0.3100     XC_GGA_X_PBE\n\n   => Exact (HF) Exchange <=\n\n    0.6900               HF \n\n   => Correlation Functionals <=\n\n    0.4400     XC_GGA_C_P86\n\n   => MP2 Correlation <=\n\n    MP2 SCS Hybrid      =           TRUE\n    MP2 OS Alpha        =       0.520000\n    MP2 SS Alpha        =       0.220000\n\n   => LibXC Density Thresholds  <==\n\n    XC_GGA_C_P86:  1.00E-25 \n    XC_GGA_X_PBE:  1.00E-32 \n\n   => VV10 Non-Local Parameters <=\n\n    VV10 B              =     1.2800E+01\n    VV10 C              =     9.3000E-03\n\n   => Molecular Quadrature <=\n\n    Radial Scheme          =       TREUTLER\n    Pruning Scheme         =           NONE\n    Nuclear Scheme         =       TREUTLER\n\n    BS radius alpha        =              1\n    Pruning alpha          =              1\n    Radial Points          =             75\n    Spherical Points       =            302\n    Total Points           =         314395\n    Total Blocks           =           2354\n    Max Points             =            256\n    Max Functions          =            155\n    Weights Tolerance      =       1.00E-15\n\n   => Loading Basis Set <=\n\n    Name: (PCSEG-1 AUX)\n    Role: JKFIT\n    Keyword: DF_BASIS_SCF\n    atoms 1-5   entry C          line   198 file /home/ubuntu/pk/Applications/miniconda3/envs/psi4-1.4a2.dev923/share/psi4/basis/def2-universal-jkfit.gbs \n    atoms 6-10  entry N          line   258 file /home/ubuntu/pk/Applications/miniconda3/envs/psi4-1.4a2.dev923/share/psi4/basis/def2-universal-jkfit.gbs \n    atoms 11-15 entry H          line    18 file /home/ubuntu/pk/Applications/miniconda3/envs/psi4-1.4a2.dev923/share/psi4/basis/def2-universal-jkfit.gbs \n\n  ==> Integral Setup <==\n\n  DFHelper Memory: AOs need 0.177 GiB; user supplied 138.674 GiB. Using in-core AOs.\n\n  ==> MemDFJK: Density-Fitted J/K Matrices <==\n\n    J tasked:                   Yes\n    K tasked:                   Yes\n    wK tasked:                   No\n    OpenMP threads:              32\n    Memory [MiB]:            142002\n    Algorithm:                 Core\n    Schwarz Cutoff:           1E-12\n    Mask sparsity (%):       7.1405\n    Fitting Condition:        1E-10\n\n   => Auxiliary Basis Set <=\n\n  Basis Set: (PCSEG-1 AUX)\n    Blend: DEF2-UNIVERSAL-JKFIT\n    Number of shells: 280\n    Number of basis function: 850\n    Number of Cartesian functions: 1010\n    Spherical Harmonics?: true\n    Max angular momentum: 4\n\n  Cached 100.0% of DFT collocation blocks in 1.024 [GiB].\n\n  Minimum eigenvalue in the overlap matrix is 1.0417057685E-03.\n  Reciprocal condition number of the overlap matrix is 1.7063086071E-04.\n    Using symmetric orthogonalization.\n\n  ==> Pre-Iterations <==\n\n  SCF Guess: Superposition of Atomic Potentials (doi:10.1021/acs.jctc.8b01089).\n\n  ==> SAP guess <==\n\n   => Molecular Quadrature <=\n\n    Radial Scheme          =       TREUTLER\n    Pruning Scheme         =           NONE\n    Nuclear Scheme         =       TREUTLER\n\n    BS radius alpha        =              1\n    Pruning alpha          =              1\n    Radial Points          =             75\n    Spherical Points       =            302\n    Total Points           =         314395\n    Total Blocks           =           2354\n    Max Points             =            256\n    Max Functions          =            155\n    Weights Tolerance      =       1.00E-15\n\n   -------------------------------------------------------\n    Irrep   Nso     Nmo     Nalpha   Nbeta   Ndocc  Nsocc\n   -------------------------------------------------------\n     A        165     165      35      35      35       0\n   -------------------------------------------------------\n    Total     165     165      35      35      35       0\n   -------------------------------------------------------\n\n  VV10: post-SCF option active \n \n  ==> Iterations <==\n\n                           Total Energy        Delta E     RMS |[F,P]|\n\n   @DF-RKS iter   1:  -462.40022192884680   -4.62400e+02   1.42641e-02 DIIS\n   @DF-RKS iter   2:  -458.01936634832936    4.38086e+00   1.88725e-02 DIIS\n   @DF-RKS iter   3:  -465.08812745411348   -7.06876e+00   5.31004e-03 DIIS\n   @DF-RKS iter   4:  -465.45335939972506   -3.65232e-01   1.69161e-03 DIIS\n   @DF-RKS iter   5:  -465.49010390303533   -3.67445e-02   4.70383e-04 DIIS\n   @DF-RKS iter   6:  -465.49273423463467   -2.63033e-03   2.11324e-04 DIIS\n   @DF-RKS iter   7:  -465.49333317529209   -5.98941e-04   4.21197e-05 DIIS\n   @DF-RKS iter   8:  -465.49336052880579   -2.73535e-05   2.36848e-05 DIIS\n   @DF-RKS iter   9:  -465.49336986366438   -9.33486e-06   6.77021e-06 DIIS\n   @DF-RKS iter  10:  -465.49337085691457   -9.93250e-07   2.73243e-06 DIIS\n   @DF-RKS iter  11:  -465.49337105045470   -1.93540e-07   8.07432e-07 DIIS\n  Energy and wave function converged.\n\n  ==> Computing Non-Self-Consistent VV10 Energy Correction <==\n\n\n  ==> Post-Iterations <==\n\n    Orbital Energies [Eh]\n    ---------------------\n\n    Doubly Occupied:                                                      \n\n       1A    -15.146364     2A    -15.096621     3A    -15.082051  \n       4A    -15.073312     5A    -15.066849     6A    -10.920597  \n       7A    -10.908712     8A    -10.903112     9A    -10.893174  \n      10A    -10.845211    11A     -1.257403    12A     -1.192371  \n      13A     -1.141311    14A     -1.087063    15A     -1.054339  \n      16A     -0.947755    17A     -0.821662    18A     -0.804027  \n      19A     -0.775236    20A     -0.714093    21A     -0.675111  \n      22A     -0.637594    23A     -0.618940    24A     -0.583878  \n      25A     -0.578209    26A     -0.559682    27A     -0.537175  \n      28A     -0.508884    29A     -0.454974    30A     -0.439255  \n      31A     -0.398837    32A     -0.386972    33A     -0.360421  \n      34A     -0.344164    35A     -0.289902  \n\n    Virtual:                                                              \n\n      36A      0.047482    37A      0.077894    38A      0.104163  \n      39A      0.120399    40A      0.124355    41A      0.147060  \n      42A      0.160828    43A      0.179523    44A      0.261774  \n      45A      0.275219    46A      0.284552    47A      0.300017  \n      48A      0.333173    49A      0.347237    50A      0.378439  \n      51A      0.406308    52A      0.431373    53A      0.441040  \n      54A      0.456783    55A      0.503591    56A      0.509857  \n      57A      0.542874    58A      0.564986    59A      0.571095  \n      60A      0.605442    61A      0.610678    62A      0.622657  \n      63A      0.631004    64A      0.642726    65A      0.660349  \n      66A      0.669770    67A      0.709096    68A      0.710749  \n      69A      0.716255    70A      0.779907    71A      0.791966  \n      72A      0.809968    73A      0.818864    74A      0.836113  \n      75A      0.839658    76A      0.869399    77A      0.875781  \n      78A      0.892204    79A      0.911310    80A      0.929257  \n      81A      0.952714    82A      0.959691    83A      0.972394  \n      84A      0.993510    85A      1.008962    86A      1.058451  \n      87A      1.077312    88A      1.080764    89A      1.151045  \n      90A      1.189188    91A      1.245165    92A      1.288233  \n      93A      1.291959    94A      1.339675    95A      1.385769  \n      96A      1.435828    97A      1.457464    98A      1.513857  \n      99A      1.523166   100A      1.549939   101A      1.569174  \n     102A      1.575029   103A      1.577177   104A      1.637049  \n     105A      1.641622   106A      1.702569   107A      1.725678  \n     108A      1.778305   109A      1.794598   110A      1.848007  \n     111A      1.936342   112A      1.945711   113A      1.985724  \n     114A      2.004363   115A      2.011495   116A      2.056290  \n     117A      2.067736   118A      2.097147   119A      2.116534  \n     120A      2.129337   121A      2.155127   122A      2.180164  \n     123A      2.244151   124A      2.277634   125A      2.293560  \n     126A      2.310595   127A      2.335856   128A      2.346481  \n     129A      2.379555   130A      2.389305   131A      2.441944  \n     132A      2.484819   133A      2.497902   134A      2.504012  \n     135A      2.563137   136A      2.578779   137A      2.617635  \n     138A      2.622572   139A      2.651321   140A      2.660973  \n     141A      2.668546   142A      2.724299   143A      2.770987  \n     144A      2.808790   145A      2.822969   146A      2.843262  \n     147A      2.883876   148A      2.905548   149A      2.917314  \n     150A      2.950249   151A      2.980166   152A      3.021639  \n     153A      3.049914   154A      3.114784   155A      3.152531  \n     156A      3.236485   157A      3.256625   158A      3.335163  \n     159A      3.404706   160A      3.436415   161A      3.501360  \n     162A      3.555800   163A      3.760667   164A      3.796537  \n     165A      3.891162  \n\n    Final Occupation by Irrep:\n              A \n    DOCC [    35 ]\n\n  @DF-RKS Final Energy:  -465.39947987627613\n\n   => Energetics <=\n\n    Nuclear Repulsion Energy =            501.2235939031376120\n    One-Electron Energy =               -1624.9559281308911523\n    Two-Electron Energy =                 678.1714269568481086\n    DFT Exchange-Correlation Energy =     -19.9323612785664501\n    Empirical Dispersion Energy =           0.0000000000000000\n    VV10 Nonlocal Energy =                  0.0937886731958954\n    Total Energy =                       -465.3994798762761320\n\nComputation Completed\n\n\nProperties will be evaluated at   0.000000,   0.000000,   0.000000 [a0]\n\nProperties computed using the SCF density matrix\n\n  Nuclear Dipole Moment: [e a0]\n     X:    -0.8453      Y:    -1.3883      Z:    -0.6829\n\n  Electronic Dipole Moment: [e a0]\n     X:     1.5247      Y:     0.6402      Z:     0.2632\n\n  Dipole Moment: [e a0]\n     X:     0.6793      Y:    -0.7481      Z:    -0.4197     Total:     1.0942\n\n  Dipole Moment: [D]\n     X:     1.7267      Y:    -1.9014      Z:    -1.0668     Total:     2.7811\n\n\n*** tstop() called on bignimbus at Mon May 17 14:58:52 2021\nModule time:\n\tuser time   =     130.19 seconds =       2.17 minutes\n\tsystem time =       3.57 seconds =       0.06 minutes\n\ttotal time  =          5 seconds =       0.08 minutes\nTotal time:\n\tuser time   =     130.19 seconds =       2.17 minutes\n\tsystem time =       3.57 seconds =       0.06 minutes\n\ttotal time  =          5 seconds =       0.08 minutes\n\n*** tstart() called on bignimbus\n*** at Mon May 17 14:58:52 2021\n\n   => Loading Basis Set <=\n\n    Name: (PCSEG-1 AUX)\n    Role: RIFIT\n    Keyword: DF_BASIS_MP2\n    atoms 1-5   entry C          line   153 file /home/ubuntu/pk/Applications/miniconda3/envs/psi4-1.4a2.dev923/share/psi4/basis/def2-svp-ri.gbs \n    atoms 6-10  entry N          line   193 file /home/ubuntu/pk/Applications/miniconda3/envs/psi4-1.4a2.dev923/share/psi4/basis/def2-svp-ri.gbs \n    atoms 11-15 entry H          line    22 file /home/ubuntu/pk/Applications/miniconda3/envs/psi4-1.4a2.dev923/share/psi4/basis/def2-svp-ri.gbs \n\n\t --------------------------------------------------------\n\t                          DF-MP2                         \n\t      2nd-Order Density-Fitted Moller-Plesset Theory     \n\t              RMP2 Wavefunction,  32 Threads             \n\t                                                         \n\t        Rob Parrish, Justin Turney, Andy Simmonett,      \n\t           Ed Hohenstein, and C. David Sherrill          \n\t --------------------------------------------------------\n\n   => Auxiliary Basis Set <=\n\n  Basis Set: (PCSEG-1 AUX)\n    Blend: DEF2-SVP-RI\n    Number of shells: 190\n    Number of basis function: 550\n    Number of Cartesian functions: 625\n    Spherical Harmonics?: true\n    Max angular momentum: 3\n\n\t --------------------------------------------------------\n\t                 NBF =   165, NAUX =   550\n\t --------------------------------------------------------\n\t   CLASS    FOCC     OCC    AOCC    AVIR     VIR    FVIR\n\t   PAIRS      10      35      25     130     130       0\n\t --------------------------------------------------------\n\n\t-----------------------------------------------------------\n\t ==================> DF-MP2 Energies <==================== \n\t-----------------------------------------------------------\n\t Reference Energy          =    -465.3994798762761320 [Eh]\n\t Singles Energy            =      -0.0000000000000000 [Eh]\n\t Same-Spin Energy          =      -0.4641529195800839 [Eh]\n\t Opposite-Spin Energy      =      -1.1990847050424196 [Eh]\n\t Correlation Energy        =      -1.6632376246225036 [Eh]\n\t Total Energy              =    -467.0627175008986569 [Eh]\n\t-----------------------------------------------------------\n\t ================> DF-SCS-MP2 Energies <================== \n\t-----------------------------------------------------------\n\t SCS Same-Spin Scale       =       0.2200000000000000 [-]\n\t SCS Opposite-Spin Scale   =       0.5200000000000000 [-]\n\t SCS Same-Spin Energy      =      -0.1021136423076184 [Eh]\n\t SCS Opposite-Spin Energy  =      -0.6235240466220582 [Eh]\n\t SCS Correlation Energy    =      -1.5936192859109313 [Eh]\n\t SCS Total Energy          =    -466.9930991621870362 [Eh]\n\t-----------------------------------------------------------\n\n\n\n    DSD-PBEP86-NL Energy Summary\n    ----------------------------\n    DFT Reference Energy                  =  -465.3994798762761320\n    Scaled MP2 Correlation                =    -0.7256376889296766\n    @Final double-hybrid DFT total energy =  -466.1251175652058123\n\n\n*** tstop() called on bignimbus at Mon May 17 14:58:53 2021\nModule time:\n\tuser time   =      21.84 seconds =       0.36 minutes\n\tsystem time =       0.49 seconds =       0.01 minutes\n\ttotal time  =          1 seconds =       0.02 minutes\nTotal time:\n\tuser time   =     152.05 seconds =       2.53 minutes\n\tsystem time =       4.07 seconds =       0.07 minutes\n\ttotal time  =          6 seconds =       0.10 minutes\n\n    Psi4 stopped on: Monday, 17 May 2021 02:58PM\n    Psi4 wall time for execution: 0:00:06.31\n\n*** Psi4 exiting successfully. Buy a developer a beer!\n",
 "stderr": null,
 "success": true,
 "error": null,
 "tag": "dsd-pbep86-nl pcseg-1 c3a_a"
}