{
 "id": null,
 "schema_name": "qcschema_output",
 "schema_version": 1,
 "molecule": {
  "validated": true,
  "symbols": [
   "N",
   "C",
   "N",
   "C",
   "C",
   "O",
   "N",
   "C",
   "N",
   "N",
   "C",
   "H",
   "H",
   "H",
   "H",
   "H",
   "N",
   "C",
   "N",
   "C",
   "C",
   "O",
   "N",
   "C",
   "N",
   "N",
   "C",
   "H",
   "H",
   "H",
   "H",
   "H"
  ],
  "geometry": [
   0.03907648617206276,
   4.630398892669814,
   -6.480050255281716,
   1.8721108278661558,
   3.46821732551325,
   -7.753725663840304,
   2.197143721444903,
   1.0947213119382198,
   -7.086652341553679,
   0.41702171126362814,
   0.686540468839328,
   -5.213933751224976,
   -0.13855776962097316,
   -1.494203479939004,
   -3.8155364183861793,
   0.8667765291225913,
   -3.623924823329977,
   -3.940258342666402,
   -2.120880475226234,
   -1.0274411269509216,
   -2.0788781090904447,
   -3.2830620423828,
   1.2950322812367492,
   -1.714160966877065,
   -4.8704319877673745,
   1.4613281802770384,
   0.13399118382067793,
   -2.82196886777109,
   3.298141974222047,
   -3.0766535033321727,
   -0.9171249333095992,
   2.854056334739458,
   -4.783076194620582,
   -0.6657913586237085,
   6.385954463220139,
   -6.750281091222197,
   -2.6065400894688984,
   -2.5203247660626054,
   -0.9204759941847892,
   2.943585541000744,
   4.403631757614879,
   -9.222042863321027,
   -5.25782584348623,
   0.01946714655271604,
   1.358533713117348,
   -5.798287515367168,
   3.1148385400526384,
   0.33808160537013004,
   0.30741759598707447,
   3.162081693189084,
   3.441011903371882,
   1.9968327521463718,
   3.24333991658377,
   1.528609064408551,
   2.883114304986093,
   1.0531473371781466,
   1.0202727366603972,
   1.8003012350987597,
   -0.5663479523392116,
   2.7380337847015657,
   2.1480108421829986,
   -3.283774120747569,
   3.129207092671331,
   3.518062283139925,
   -4.786106390486541,
   1.8026193525999423,
   0.7515032354696634,
   -4.1624967690854575,
   5.198457200047651,
   -0.8339769837894528,
   -2.645046690342823,
   6.617641520266497,
   -1.9867099203187286,
   -3.8166768881266773,
   8.54516216823347,
   -1.1797968647482384,
   -0.18840272724764634,
   6.1678867024075235,
   0.20726211133780886,
   0.6940993733411591,
   4.240366054440537,
   -0.7054756072583213,
   4.603942726913407,
   4.181784544551343,
   0.798746388606109,
   -6.095686595428816,
   5.531048998128236,
   2.420131404248926,
   4.970549595252223,
   0.519495313414078,
   -1.8714366266658025,
   -5.729079727089997,
   8.84751834830673,
   -3.266054507253679,
   -2.7924453281285326,
   9.520260848969722
  ],
  "name": "C10H10N10O2",
  "molecular_charge": 0.0,
  "molecular_multiplicity": 1,
  "masses": [
   14.00307400443,
   12.0,
   14.00307400443,
   12.0,
   12.0,
   15.99491461957,
   14.00307400443,
   12.0,
   14.00307400443,
   14.00307400443,
   12.0,
   1.00782503223,
   1.00782503223,
   1.00782503223,
   1.00782503223,
   1.00782503223,
   14.00307400443,
   12.0,
   14.00307400443,
   12.0,
   12.0,
   15.99491461957,
   14.00307400443,
   12.0,
   14.00307400443,
   14.00307400443,
   12.0,
   1.00782503223,
   1.00782503223,
   1.00782503223,
   1.00782503223,
   1.00782503223
  ],
  "real": [
   true,
   true,
   true,
   true,
   true,
   true,
   true,
   true,
   true,
   true,
   true,
   true,
   true,
   true,
   true,
   true,
   true,
   true,
   true,
   true,
   true,
   true,
   true,
   true,
   true,
   true,
   true,
   true,
   true,
   true,
   true,
   true
  ],
  "atom_labels": [
   "",
   "",
   "",
   "",
   "",
   "",
   "",
   "",
   "",
   "",
   "",
   "",
   "",
   "",
   "",
   "",
   "",
   "",
   "",
   "",
   "",
   "",
   "",
   "",
   "",
   "",
   "",
   "",
   "",
   "",
   "",
   ""
  ],
  "atomic_numbers": [
   7,
   6,
   7,
   6,
   6,
   8,
   7,
   6,
   7,
   7,
   6,
   1,
   1,
   1,
   1,
   1,
   7,
   6,
   7,
   6,
   6,
   8,
   7,
   6,
   7,
   7,
   6,
   1,
   1,
   1,
   1,
   1
  ],
  "mass_numbers": [
   14,
   12,
   14,
   12,
   12,
   16,
   14,
   12,
   14,
   14,
   12,
   1,
   1,
   1,
   1,
   1,
   14,
   12,
   14,
   12,
   12,
   16,
   14,
   12,
   14,
   14,
   12,
   1,
   1,
   1,
   1,
   1
  ],
  "fragments": [
   [
    0,
    1,
    2,
    3,
    4,
    5,
    6,
    7,
    8,
    9,
    10,
    11,
    12,
    13,
    14,
    15,
    16,
    17,
    18,
    19,
    20,
    21,
    22,
    23,
    24,
    25,
    26,
    27,
    28,
    29,
    30,
    31
   ]
  ],
  "fragment_charges": [
   0.0
  ],
  "fragment_multiplicities": [
   1
  ],
  "fix_com": false,
  "fix_orientation": false,
  "provenance": {
   "creator": "QCElemental",
   "version": "v0.19.0",
   "routine": "qcelemental.molparse.from_string"
  }
 },
 "driver": "energy",
 "model": {
  "method": "m062x-d3",
  "basis": "def2-svpd"
 },
 "keywords": {},
 "protocols": {},
 "extras": {
  "qcvars": {
   "2-BODY DISPERSION CORRECTION ENERGY": -0.00220144,
   "CURRENT DIPOLE X": -9.020094262166523,
   "CURRENT DIPOLE Y": 4.952255895570153,
   "CURRENT DIPOLE Z": 8.72209548171132,
   "CURRENT ENERGY": -1083.9573238135185,
   "CURRENT REFERENCE ENERGY": -1083.9573238135185,
   "DFT FUNCTIONAL TOTAL ENERGY": -1083.9551223735184,
   "DFT TOTAL ENERGY": -1083.9573238135183,
   "DFT VV10 ENERGY": 0.0,
   "DFT XC ENERGY": -69.41028669602031,
   "DISPERSION CORRECTION ENERGY": -0.00220144,
   "M06-2X-D3 DISPERSION CORRECTION ENERGY": -0.00220144,
   "NUCLEAR REPULSION ENERGY": 1842.1167887086447,
   "ONE-ELECTRON ENERGY": -5135.872765833152,
   "PCM POLARIZATION ENERGY": 0.0,
   "PE ENERGY": 0.0,
   "SCF DIPOLE X": -9.020094262166523,
   "SCF DIPOLE Y": 4.952255895570153,
   "SCF DIPOLE Z": 8.72209548171132,
   "SCF ITERATION ENERGY": -1083.9573238135185,
   "SCF ITERATIONS": 10.0,
   "SCF TOTAL ENERGY": -1083.9573238135185,
   "TWO-ELECTRON ENERGY": 2279.2111414470087,
   "XC GRID RADIAL POINTS": 75.0,
   "XC GRID SPHERICAL POINTS": 302.0,
   "XC GRID TOTAL POINTS": 658736.0,
   "CURRENT DIPOLE": [
    -3.548778146396741,
    1.9483673880523944,
    3.431536404903199
   ],
   "SCF DIPOLE": [
    -3.548778146396741,
    1.9483673880523944,
    3.431536404903199
   ]
  }
 },
 "provenance": {
  "creator": "Psi4",
  "version": "1.4a2.dev923",
  "routine": "psi4.schema_runner.run_qcschema",
  "qcengine_version": "v0.17.0",
  "cpu": "AMD EPYC Processor (with IBPB)",
  "memory": 64.0,
  "username": "ubuntu",
  "nthreads": 16,
  "wall_time": 67.73890423774719,
  "hostname": "bignimbus"
 },
 "properties": {
  "calcinfo_nbasis": 526,
  "calcinfo_nmo": 526,
  "calcinfo_nalpha": 78,
  "calcinfo_nbeta": 78,
  "calcinfo_natom": 32,
  "nuclear_repulsion_energy": 1842.1167887086447,
  "return_energy": -1083.9573238135185,
  "scf_one_electron_energy": -5135.872765833152,
  "scf_two_electron_energy": 2279.2111414470087,
  "scf_xc_energy": -69.41028669602031,
  "scf_dispersion_correction_energy": -0.00220144,
  "scf_dipole_moment": [
   -3.548778146396741,
   1.9483673880523944,
   3.431536404903199
  ],
  "scf_total_energy": -1083.9573238135185,
  "scf_iterations": 10
 },
 "wavefunction": null,
 "return_result": -1083.9573238135185,
 "stdout": "\n    -----------------------------------------------------------------------\n          Psi4: An Open-Source Ab Initio Electronic Structure Package\n                               Psi4 1.4a2.dev923 \n\n                         Git: Rev {master} 5de566e \n\n\n    D. G. A. Smith, L. A. Burns, A. C. Simmonett, R. M. Parrish,\n    M. C. Schieber, R. Galvelis, P. Kraus, H. Kruse, R. Di Remigio,\n    A. Alenaizan, A. M. James, S. Lehtola, J. P. Misiewicz, M. Scheurer,\n    R. A. Shaw, J. B. Schriber, Y. Xie, Z. L. Glick, D. A. Sirianni,\n    J. S. O'Brien, J. M. Waldrop, A. Kumar, E. G. Hohenstein,\n    B. P. Pritchard, B. R. Brooks, H. F. Schaefer III, A. Yu. Sokolov,\n    K. Patkowski, A. E. DePrince III, U. Bozkaya, R. A. King,\n    F. A. Evangelista, J. M. Turney, T. D. Crawford, C. D. Sherrill,\n    J. Chem. Phys. 152(18) 184108 (2020). https://doi.org/10.1063/5.0006002\n\n                            Additional Code Authors\n    E. T. Seidl, C. L. Janssen, E. F. Valeev, M. L. Leininger,\n    J. F. Gonthier, R. M. Richard, H. R. McAlexander, M. Saitow, X. Wang,\n    P. Verma, and M. H. Lechner\n\n             Previous Authors, Complete List of Code Contributors,\n                       and Citations for Specific Modules\n    https://github.com/psi4/psi4/blob/master/codemeta.json\n    https://github.com/psi4/psi4/graphs/contributors\n    http://psicode.org/psi4manual/master/introduction.html#citing-psifour\n\n    -----------------------------------------------------------------------\n\n\n    Psi4 started on: Saturday, 24 April 2021 12:35PM\n\n    Process ID: 3792360\n    Host:       bignimbus\n    PSIDATADIR: /home/ubuntu/pk/Applications/miniconda3/envs/psi4-1.4a2.dev923/share/psi4\n    Memory:     59.6 GiB\n    Threads:    16\n    \n  ==> Input QCSchema <==\n\n--------------------------------------------------------------------------\n{'driver': 'energy',\n 'extras': {},\n 'id': None,\n 'keywords': {},\n 'model': {'basis': 'def2-svpd', 'method': 'm062x-d3'},\n 'molecule': {'atom_labels': ['', '', '', '', '', '', '', '', '', '', '', '', '', '', '', '', '', '', '', '', '', '',\n                              '', '', '', '', '', '', '', '', '', ''],\n              'atomic_numbers': [7, 6, 7, 6, 6, 8, 7, 6, 7, 7, 6, 1, 1, 1, 1, 1, 7, 6, 7, 6, 6, 8, 7, 6, 7, 7, 6, 1, 1,\n                                 1, 1, 1],\n              'fix_com': False,\n              'fix_orientation': False,\n              'fragment_charges': [0.0],\n              'fragment_multiplicities': [1],\n              'fragments': [[0, 1, 2, 3, 4, 5, 6, 7, 8, 9, 10, 11, 12, 13, 14, 15, 16, 17, 18, 19, 20, 21, 22, 23, 24,\n                             25, 26, 27, 28, 29, 30, 31]],\n              'geometry': [0.039076486172067604, 4.630398892669815, -6.480050255281711, 1.8721108278661607,\n                           3.468217325513251, -7.7537256638402985, 2.197143721444908, 1.0947213119382209,\n                           -7.086652341553673, 0.41702171126363297, 0.6865404688393291, -5.213933751224971,\n                           -0.13855776962096833, -1.494203479939003, -3.815536418386174, 0.8667765291225962,\n                           -3.6239248233299755, -3.9402583426663966, -2.120880475226229, -1.0274411269509205,\n                           -2.0788781090904394, -3.283062042382795, 1.2950322812367503, -1.7141609668770599,\n                           -4.87043198776737, 1.4613281802770395, 0.1339911838206831, -2.8219688677710852,\n                           3.298141974222048, -3.0766535033321674, -0.9171249333095943, 2.854056334739459,\n                           -4.783076194620577, -0.6657913586237036, 6.3859544632201395, -6.750281091222192,\n                           -2.6065400894688935, -2.520324766062604, -0.920475994184784, 2.9435855410007488,\n                           4.40363175761488, -9.222042863321022, -5.257825843486225, 0.019467146552717193,\n                           1.3585337131173532, -5.798287515367163, 3.1148385400526397, 0.3380816053701352,\n                           0.3074175959870793, 3.1620816931890854, 3.441011903371887, 1.9968327521463767,\n                           3.2433399165837713, 1.5286090644085562, 2.8831143049860977, 1.0531473371781477,\n                           1.0202727366604023, 1.8003012350987646, -0.5663479523392105, 2.738033784701571,\n                           2.1480108421830035, -3.2837741207475677, 3.1292070926713365, 3.5180622831399297,\n                           -4.78610639048654, 1.8026193525999474, 0.7515032354696682, -4.162496769085457,\n                           5.198457200047656, -0.833976983789448, -2.645046690342822, 6.617641520266503,\n                           -1.9867099203187237, -3.816676888126676, 8.545162168233475, -1.1797968647482335,\n                           -0.18840272724764517, 6.167886702407529, 0.2072621113378137, 0.6940993733411602,\n                           4.240366054440543, -0.7054756072583164, 4.603942726913408, 4.181784544551348,\n                           0.7987463886061139, -6.095686595428815, 5.531048998128242, 2.420131404248931,\n                           4.970549595252224, 0.5194953134140832, -1.8714366266657976, -5.729079727089996,\n                           8.847518348306735, -3.266054507253674, -2.7924453281285313, 9.520260848969727],\n              'mass_numbers': [14, 12, 14, 12, 12, 16, 14, 12, 14, 14, 12, 1, 1, 1, 1, 1, 14, 12, 14, 12, 12, 16, 14,\n                               12, 14, 14, 12, 1, 1, 1, 1, 1],\n              'masses': [14.00307400443, 12.0, 14.00307400443, 12.0, 12.0, 15.99491461957, 14.00307400443, 12.0,\n                         14.00307400443, 14.00307400443, 12.0, 1.00782503223, 1.00782503223, 1.00782503223,\n                         1.00782503223, 1.00782503223, 14.00307400443, 12.0, 14.00307400443, 12.0, 12.0, 15.99491461957,\n                         14.00307400443, 12.0, 14.00307400443, 14.00307400443, 12.0, 1.00782503223, 1.00782503223,\n                         1.00782503223, 1.00782503223, 1.00782503223],\n              'molecular_charge': 0.0,\n              'molecular_multiplicity': 1,\n              'name': 'C10H10N10O2',\n              'provenance': {'creator': 'QCElemental',\n                             'routine': 'qcelemental.molparse.from_string',\n                             'version': 'v0.19.0'},\n              'real': [True, True, True, True, True, True, True, True, True, True, True, True, True, True, True, True,\n                       True, True, True, True, True, True, True, True, True, True, True, True, True, True, True, True],\n              'symbols': ['N', 'C', 'N', 'C', 'C', 'O', 'N', 'C', 'N', 'N', 'C', 'H', 'H', 'H', 'H', 'H', 'N', 'C', 'N',\n                          'C', 'C', 'O', 'N', 'C', 'N', 'N', 'C', 'H', 'H', 'H', 'H', 'H'],\n              'validated': True},\n 'protocols': {},\n 'provenance': {'creator': 'QCElemental', 'routine': 'qcelemental.models.results', 'version': 'v0.17.0'},\n 'schema_name': 'qcschema_input',\n 'schema_version': 1}\n--------------------------------------------------------------------------\n\nScratch directory: /home/ubuntu/pk/scratch/tmpr9hnhasg_psi_scratch/\n\n*** tstart() called on bignimbus\n*** at Sat Apr 24 12:35:03 2021\n\n   => Loading Basis Set <=\n\n    Name: DEF2-SVPD\n    Role: ORBITAL\n    Keyword: BASIS\n    atoms 1, 3, 7, 9-10, 17, 19, 23, 25-26 entry N          line   125 file /home/ubuntu/pk/Applications/miniconda3/envs/psi4-1.4a2.dev923/share/psi4/basis/def2-svpd.gbs \n    atoms 2, 4-5, 8, 11, 18, 20-21, 24, 27 entry C          line   101 file /home/ubuntu/pk/Applications/miniconda3/envs/psi4-1.4a2.dev923/share/psi4/basis/def2-svpd.gbs \n    atoms 6, 22                            entry O          line   149 file /home/ubuntu/pk/Applications/miniconda3/envs/psi4-1.4a2.dev923/share/psi4/basis/def2-svpd.gbs \n    atoms 12-16, 28-32                     entry H          line    14 file /home/ubuntu/pk/Applications/miniconda3/envs/psi4-1.4a2.dev923/share/psi4/basis/def2-svpd.gbs \n\n   => M06-2X-D3: Empirical Dispersion <=\n\n    Grimme's -D3 (zero-damping) Dispersion Correction\n    Grimme S.; Antony J.; Ehrlich S.; Krieg H. (2010), J. Chem. Phys., 132: 154104\n    Parametrisation from:    L. Goerigk, S. Grimme, Phys. Chem. Chem. Phys. 13, 6670-6688, 2011\n\n        s6 =       1.000000\n        s8 =       0.000000\n       sr6 =       1.619000\n    alpha6 =      14.000000\n       sr8 =       1.000000\n\n\n         ---------------------------------------------------------\n                                   SCF\n               by Justin Turney, Rob Parrish, Andy Simmonett\n                          and Daniel G. A. Smith\n                              RKS Reference\n                       16 Threads,  61035 MiB Core\n         ---------------------------------------------------------\n\n  ==> Geometry <==\n\n    Molecular point group: c1\n    Full point group: C1\n\n    Geometry (in Bohr), charge = 0, multiplicity = 1:\n\n       Center              X                  Y                   Z               Mass       \n    ------------   -----------------  -----------------  -----------------  -----------------\n         N            0.039076486172     4.630398892670    -6.480050255282    14.003074004430\n         C            1.872110827866     3.468217325513    -7.753725663840    12.000000000000\n         N            2.197143721445     1.094721311938    -7.086652341554    14.003074004430\n         C            0.417021711264     0.686540468839    -5.213933751225    12.000000000000\n         C           -0.138557769621    -1.494203479939    -3.815536418386    12.000000000000\n         O            0.866776529123    -3.623924823330    -3.940258342666    15.994914619570\n         N           -2.120880475226    -1.027441126951    -2.078878109090    14.003074004430\n         C           -3.283062042383     1.295032281237    -1.714160966877    12.000000000000\n         N           -4.870431987767     1.461328180277     0.133991183821    14.003074004430\n         N           -2.821968867771     3.298141974222    -3.076653503332    14.003074004430\n         C           -0.917124933310     2.854056334739    -4.783076194621    12.000000000000\n         H           -0.665791358624     6.385954463220    -6.750281091222     1.007825032230\n         H           -2.606540089469    -2.520324766063    -0.920475994185     1.007825032230\n         H            2.943585541001     4.403631757615    -9.222042863321     1.007825032230\n         H           -5.257825843486     0.019467146553     1.358533713117     1.007825032230\n         H           -5.798287515367     3.114838540053     0.338081605370     1.007825032230\n         N            0.307417595987     3.162081693189     3.441011903372    14.003074004430\n         C            1.996832752146     3.243339916584     1.528609064409    12.000000000000\n         N            2.883114304986     1.053147337178     1.020272736660    14.003074004430\n         C            1.800301235099    -0.566347952339     2.738033784702    12.000000000000\n         C            2.148010842183    -3.283774120748     3.129207092671    12.000000000000\n         O            3.518062283140    -4.786106390487     1.802619352600    15.994914619570\n         N            0.751503235470    -4.162496769085     5.198457200048    14.003074004430\n         C           -0.833976983789    -2.645046690343     6.617641520266    12.000000000000\n         N           -1.986709920319    -3.816676888127     8.545162168233    14.003074004430\n         N           -1.179796864748    -0.188402727248     6.167886702408    14.003074004430\n         C            0.207262111338     0.694099373341     4.240366054441    12.000000000000\n         H           -0.705475607258     4.603942726913     4.181784544551     1.007825032230\n         H            0.798746388606    -6.095686595429     5.531048998128     1.007825032230\n         H            2.420131404249     4.970549595252     0.519495313414     1.007825032230\n         H           -1.871436626666    -5.729079727090     8.847518348307     1.007825032230\n         H           -3.266054507254    -2.792445328129     9.520260848970     1.007825032230\n\n  Running in c1 symmetry.\n\n  Rotational constants: A =      0.01937  B =      0.00689  C =      0.00628 [cm^-1]\n  Rotational constants: A =    580.66746  B =    206.51883  C =    188.19690 [MHz]\n  Nuclear repulsion = 1842.116788708644663\n\n  Charge       = 0\n  Multiplicity = 1\n  Electrons    = 156\n  Nalpha       = 78\n  Nbeta        = 78\n\n  ==> Algorithm <==\n\n  SCF Algorithm Type is DF.\n  DIIS enabled.\n  MOM disabled.\n  Fractional occupation disabled.\n  Guess Type is SAD.\n  Energy threshold   = 1.00e-06\n  Density threshold  = 1.00e-06\n  Integral threshold = 0.00e+00\n\n  ==> Primary Basis <==\n\n  Basis Set: DEF2-SVPD\n    Blend: DEF2-SVPD\n    Number of shells: 218\n    Number of basis function: 526\n    Number of Cartesian functions: 570\n    Spherical Harmonics?: true\n    Max angular momentum: 2\n\n  ==> DFT Potential <==\n\n   => Composite Functional: M06-2X-D3ZERO <= \n\n    Hybrid M06-2X Meta-GGA XC Functional\n\n    Y. Zhao and D. G. Truhlar,  Theor. Chem. Acc., 120, 215, 2008\n\n\n    Deriv               =              1\n    GGA                 =           TRUE\n    Meta                =           TRUE\n\n    Exchange Hybrid     =           TRUE\n    MP2 Hybrid          =          FALSE\n\n   => Exchange Functionals <=\n\n    1.0000   XC_HYB_MGGA_X_M06_2X\n\n   => Exact (HF) Exchange <=\n\n    0.5400               HF \n\n   => Correlation Functionals <=\n\n    1.0000   XC_MGGA_C_M06_2X\n\n   => LibXC Density Thresholds  <==\n\n    XC_MGGA_C_M06_2X:  1.00E-23 \n    XC_HYB_MGGA_X_M06_2X:  1.00E-20 \n\n   => Molecular Quadrature <=\n\n    Radial Scheme          =       TREUTLER\n    Pruning Scheme         =           NONE\n    Nuclear Scheme         =       TREUTLER\n\n    BS radius alpha        =              1\n    Pruning alpha          =              1\n    Radial Points          =             75\n    Spherical Points       =            302\n    Total Points           =         658736\n    Total Blocks           =           4757\n    Max Points             =            256\n    Max Functions          =            466\n    Weights Tolerance      =       1.00E-15\n\n   => Loading Basis Set <=\n\n    Name: (DEF2-SVPD AUX)\n    Role: JKFIT\n    Keyword: DF_BASIS_SCF\n    atoms 1, 3, 7, 9-10, 17, 19, 23, 25-26 entry N          line   258 file /home/ubuntu/pk/Applications/miniconda3/envs/psi4-1.4a2.dev923/share/psi4/basis/def2-universal-jkfit.gbs \n    atoms 2, 4-5, 8, 11, 18, 20-21, 24, 27 entry C          line   198 file /home/ubuntu/pk/Applications/miniconda3/envs/psi4-1.4a2.dev923/share/psi4/basis/def2-universal-jkfit.gbs \n    atoms 6, 22                            entry O          line   318 file /home/ubuntu/pk/Applications/miniconda3/envs/psi4-1.4a2.dev923/share/psi4/basis/def2-universal-jkfit.gbs \n    atoms 12-16, 28-32                     entry H          line    18 file /home/ubuntu/pk/Applications/miniconda3/envs/psi4-1.4a2.dev923/share/psi4/basis/def2-universal-jkfit.gbs \n\n  ==> Integral Setup <==\n\n  DFHelper Memory: AOs need 3.475 GiB; user supplied 29.154 GiB. Using in-core AOs.\n\n  ==> MemDFJK: Density-Fitted J/K Matrices <==\n\n    J tasked:                   Yes\n    K tasked:                   Yes\n    wK tasked:                   No\n    OpenMP threads:              16\n    Memory [MiB]:             29853\n    Algorithm:                 Core\n    Schwarz Cutoff:           1E-12\n    Mask sparsity (%):      12.0769\n    Fitting Condition:        1E-10\n\n   => Auxiliary Basis Set <=\n\n  Basis Set: (DEF2-SVPD AUX)\n    Blend: DEF2-UNIVERSAL-JKFIT\n    Number of shells: 610\n    Number of basis function: 1854\n    Number of Cartesian functions: 2206\n    Spherical Harmonics?: true\n    Max angular momentum: 4\n\n  Cached 100.0% of DFT collocation blocks in 15.550 [GiB].\n\n  Minimum eigenvalue in the overlap matrix is 2.3975164708E-05.\n  Reciprocal condition number of the overlap matrix is 1.8984012169E-06.\n    Using symmetric orthogonalization.\n\n  ==> Pre-Iterations <==\n\n  SCF Guess: Superposition of Atomic Densities via on-the-fly atomic UHF (no occupation information).\n\n   -------------------------\n    Irrep   Nso     Nmo    \n   -------------------------\n     A        526     526 \n   -------------------------\n    Total     526     526\n   -------------------------\n\n  ==> Iterations <==\n\n                           Total Energy        Delta E     RMS |[F,P]|\n\n   @DF-RKS iter SAD: -1084.52014532785893   -1.08452e+03   0.00000e+00 \n   @DF-RKS iter   1: -1083.14292259317949    1.37722e+00   2.51019e-03 DIIS\n   @DF-RKS iter   2: -1082.72655382220705    4.16369e-01   3.22748e-03 DIIS\n   @DF-RKS iter   3: -1083.88319904540117   -1.15665e+00   7.84817e-04 DIIS\n   @DF-RKS iter   4: -1083.95388574113258   -7.06867e-02   1.63149e-04 DIIS\n   @DF-RKS iter   5: -1083.95675439821434   -2.86866e-03   6.45659e-05 DIIS\n   @DF-RKS iter   6: -1083.95725737120256   -5.02973e-04   2.03244e-05 DIIS\n   @DF-RKS iter   7: -1083.95731282132510   -5.54501e-05   7.56087e-06 DIIS\n   @DF-RKS iter   8: -1083.95732193334425   -9.11202e-06   2.89036e-06 DIIS\n   @DF-RKS iter   9: -1083.95732346443151   -1.53109e-06   1.55043e-06 DIIS\n   @DF-RKS iter  10: -1083.95732381351854   -3.49087e-07   4.17908e-07 DIIS\n  Energy and wave function converged.\n\n\n  ==> Post-Iterations <==\n\n    Orbital Energies [Eh]\n    ---------------------\n\n    Doubly Occupied:                                                      \n\n       1A    -19.604005     2A    -19.585463     3A    -14.842152  \n       4A    -14.827081     5A    -14.826793     6A    -14.818626  \n       7A    -14.813694     8A    -14.808272     9A    -14.777298  \n      10A    -14.755230    11A    -14.749463    12A    -14.737927  \n      13A    -10.714198    14A    -10.685863    15A    -10.677603  \n      16A    -10.651263    17A    -10.631863    18A    -10.621255  \n      19A    -10.620011    20A    -10.607413    21A    -10.575331  \n      22A    -10.555850    23A     -1.166431    24A     -1.150371  \n      25A     -1.140086    26A     -1.122319    27A     -1.101579  \n      28A     -1.099489    29A     -1.030607    30A     -1.016499  \n      31A     -1.014116    32A     -0.992321    33A     -0.977313  \n      34A     -0.960572    35A     -0.861356    36A     -0.845063  \n      37A     -0.771099    38A     -0.760200    39A     -0.757547  \n      40A     -0.739087    41A     -0.709720    42A     -0.698626  \n      43A     -0.698479    44A     -0.685816    45A     -0.642039  \n      46A     -0.638336    47A     -0.626280    48A     -0.617475  \n      49A     -0.610041    50A     -0.591554    51A     -0.579263  \n      52A     -0.573443    53A     -0.560016    54A     -0.557873  \n      55A     -0.541442    56A     -0.525166    57A     -0.521806  \n      58A     -0.508728    59A     -0.506502    60A     -0.485218  \n      61A     -0.481091    62A     -0.472956    63A     -0.467891  \n      64A     -0.455080    65A     -0.400088    66A     -0.398024  \n      67A     -0.385061    68A     -0.374568    69A     -0.361019  \n      70A     -0.352323    71A     -0.342079    72A     -0.339228  \n      73A     -0.333058    74A     -0.327701    75A     -0.326894  \n      76A     -0.316059    77A     -0.270012    78A     -0.251083  \n\n    Virtual:                                                              \n\n      79A     -0.003746    80A      0.011435    81A      0.015024  \n      82A      0.018182    83A      0.029900    84A      0.030474  \n      85A      0.038571    86A      0.044171    87A      0.049452  \n      88A      0.054461    89A      0.068618    90A      0.073603  \n      91A      0.075724    92A      0.083589    93A      0.085550  \n      94A      0.087894    95A      0.091799    96A      0.093964  \n      97A      0.109773    98A      0.115253    99A      0.121652  \n     100A      0.127165   101A      0.139093   102A      0.143200  \n     103A      0.150763   104A      0.151753   105A      0.155284  \n     106A      0.158485   107A      0.162137   108A      0.170744  \n     109A      0.175916   110A      0.180278   111A      0.184510  \n     112A      0.187285   113A      0.196132   114A      0.198114  \n     115A      0.203970   116A      0.207338   117A      0.212431  \n     118A      0.219683   119A      0.220640   120A      0.223849  \n     121A      0.227582   122A      0.233820   123A      0.241620  \n     124A      0.244529   125A      0.246539   126A      0.251993  \n     127A      0.256698   128A      0.259477   129A      0.263431  \n     130A      0.267175   131A      0.269881   132A      0.274586  \n     133A      0.279427   134A      0.281086   135A      0.283104  \n     136A      0.289580   137A      0.294183   138A      0.294720  \n     139A      0.302545   140A      0.304384   141A      0.308462  \n     142A      0.311850   143A      0.315175   144A      0.319791  \n     145A      0.321932   146A      0.324551   147A      0.325465  \n     148A      0.332786   149A      0.337823   150A      0.344638  \n     151A      0.346075   152A      0.348826   153A      0.352231  \n     154A      0.355252   155A      0.356900   156A      0.363117  \n     157A      0.368477   158A      0.371619   159A      0.376003  \n     160A      0.378165   161A      0.380665   162A      0.381975  \n     163A      0.384241   164A      0.393357   165A      0.395986  \n     166A      0.402046   167A      0.403627   168A      0.406310  \n     169A      0.414712   170A      0.419946   171A      0.422196  \n     172A      0.425591   173A      0.427784   174A      0.430084  \n     175A      0.432075   176A      0.434032   177A      0.439932  \n     178A      0.441931   179A      0.448717   180A      0.449197  \n     181A      0.450804   182A      0.456952   183A      0.462038  \n     184A      0.465948   185A      0.468484   186A      0.472256  \n     187A      0.476437   188A      0.479895   189A      0.485917  \n     190A      0.490444   191A      0.495271   192A      0.497975  \n     193A      0.500381   194A      0.511327   195A      0.513270  \n     196A      0.514927   197A      0.518516   198A      0.527649  \n     199A      0.530768   200A      0.534341   201A      0.547982  \n     202A      0.554074   203A      0.556627   204A      0.560139  \n     205A      0.564874   206A      0.569010   207A      0.577150  \n     208A      0.581704   209A      0.587233   210A      0.591114  \n     211A      0.591162   212A      0.597760   213A      0.601845  \n     214A      0.609807   215A      0.613435   216A      0.621704  \n     217A      0.624438   218A      0.626558   219A      0.630125  \n     220A      0.633278   221A      0.636481   222A      0.642904  \n     223A      0.648426   224A      0.651683   225A      0.654295  \n     226A      0.659895   227A      0.663906   228A      0.665734  \n     229A      0.671911   230A      0.676406   231A      0.684440  \n     232A      0.685064   233A      0.690422   234A      0.695489  \n     235A      0.699025   236A      0.703648   237A      0.710945  \n     238A      0.715607   239A      0.718363   240A      0.720185  \n     241A      0.726092   242A      0.729598   243A      0.740153  \n     244A      0.742988   245A      0.747248   246A      0.751278  \n     247A      0.753120   248A      0.757392   249A      0.765967  \n     250A      0.771350   251A      0.774121   252A      0.779676  \n     253A      0.781331   254A      0.786041   255A      0.790096  \n     256A      0.795480   257A      0.798472   258A      0.802223  \n     259A      0.807456   260A      0.812343   261A      0.816996  \n     262A      0.821871   263A      0.824929   264A      0.828540  \n     265A      0.829997   266A      0.839243   267A      0.842468  \n     268A      0.846862   269A      0.852254   270A      0.857493  \n     271A      0.864030   272A      0.866316   273A      0.870948  \n     274A      0.876670   275A      0.891231   276A      0.897249  \n     277A      0.903106   278A      0.904372   279A      0.911780  \n     280A      0.912484   281A      0.920945   282A      0.927340  \n     283A      0.941071   284A      0.945547   285A      0.957182  \n     286A      0.959898   287A      0.968462   288A      0.978011  \n     289A      0.981867   290A      0.989517   291A      0.992677  \n     292A      1.001723   293A      1.013186   294A      1.025052  \n     295A      1.037402   296A      1.052794   297A      1.061369  \n     298A      1.072927   299A      1.089598   300A      1.091995  \n     301A      1.100820   302A      1.118188   303A      1.123319  \n     304A      1.132470   305A      1.134868   306A      1.142438  \n     307A      1.147652   308A      1.159237   309A      1.168274  \n     310A      1.171892   311A      1.178574   312A      1.186318  \n     313A      1.195331   314A      1.201608   315A      1.208457  \n     316A      1.210211   317A      1.222386   318A      1.229422  \n     319A      1.237914   320A      1.245299   321A      1.249084  \n     322A      1.260165   323A      1.268648   324A      1.292225  \n     325A      1.298601   326A      1.310322   327A      1.312345  \n     328A      1.333449   329A      1.339779   330A      1.350252  \n     331A      1.355843   332A      1.368881   333A      1.372881  \n     334A      1.396144   335A      1.399125   336A      1.404398  \n     337A      1.416245   338A      1.426639   339A      1.436351  \n     340A      1.448007   341A      1.456003   342A      1.464002  \n     343A      1.479285   344A      1.491654   345A      1.510631  \n     346A      1.522486   347A      1.532765   348A      1.558891  \n     349A      1.562431   350A      1.584043   351A      1.585061  \n     352A      1.599819   353A      1.607648   354A      1.622510  \n     355A      1.635145   356A      1.640271   357A      1.642658  \n     358A      1.652811   359A      1.664347   360A      1.672534  \n     361A      1.678314   362A      1.687149   363A      1.695207  \n     364A      1.705425   365A      1.716537   366A      1.721139  \n     367A      1.724417   368A      1.740881   369A      1.748052  \n     370A      1.753592   371A      1.763201   372A      1.773993  \n     373A      1.780983   374A      1.788310   375A      1.792041  \n     376A      1.798005   377A      1.803134   378A      1.816936  \n     379A      1.819363   380A      1.829006   381A      1.833830  \n     382A      1.844780   383A      1.846716   384A      1.857917  \n     385A      1.861486   386A      1.865526   387A      1.873304  \n     388A      1.881441   389A      1.894525   390A      1.905134  \n     391A      1.915056   392A      1.916055   393A      1.929050  \n     394A      1.934938   395A      1.940698   396A      1.945243  \n     397A      1.953680   398A      1.967777   399A      1.975279  \n     400A      1.979951   401A      1.993167   402A      2.003967  \n     403A      2.011624   404A      2.013952   405A      2.019132  \n     406A      2.023380   407A      2.034512   408A      2.043366  \n     409A      2.051239   410A      2.059580   411A      2.070339  \n     412A      2.083288   413A      2.088364   414A      2.092635  \n     415A      2.103808   416A      2.108587   417A      2.124709  \n     418A      2.132100   419A      2.139625   420A      2.146929  \n     421A      2.152087   422A      2.158970   423A      2.165076  \n     424A      2.172120   425A      2.182387   426A      2.188971  \n     427A      2.197925   428A      2.207247   429A      2.215395  \n     430A      2.217227   431A      2.222785   432A      2.238761  \n     433A      2.243305   434A      2.244578   435A      2.260369  \n     436A      2.264986   437A      2.280370   438A      2.297879  \n     439A      2.311029   440A      2.343273   441A      2.351912  \n     442A      2.370270   443A      2.390015   444A      2.404837  \n     445A      2.410513   446A      2.428020   447A      2.429449  \n     448A      2.445793   449A      2.449397   450A      2.460069  \n     451A      2.491724   452A      2.521347   453A      2.530569  \n     454A      2.535751   455A      2.539156   456A      2.553492  \n     457A      2.574870   458A      2.582979   459A      2.604667  \n     460A      2.611954   461A      2.627517   462A      2.632264  \n     463A      2.643192   464A      2.656373   465A      2.661949  \n     466A      2.668117   467A      2.681231   468A      2.691710  \n     469A      2.702119   470A      2.716174   471A      2.733194  \n     472A      2.767808   473A      2.783538   474A      2.802459  \n     475A      2.832605   476A      2.839121   477A      2.846023  \n     478A      2.858214   479A      2.879725   480A      2.883036  \n     481A      2.918262   482A      2.923503   483A      2.942639  \n     484A      2.952272   485A      2.955896   486A      2.969543  \n     487A      2.987763   488A      3.010808   489A      3.019317  \n     490A      3.026791   491A      3.050606   492A      3.081587  \n     493A      3.093358   494A      3.110323   495A      3.123483  \n     496A      3.128952   497A      3.138695   498A      3.159311  \n     499A      3.221280   500A      3.230735   501A      3.240983  \n     502A      3.248180   503A      3.260873   504A      3.272919  \n     505A      3.300011   506A      3.302706   507A      3.303571  \n     508A      3.341460   509A      3.356978   510A      3.365407  \n     511A      3.397370   512A      3.425589   513A      3.431059  \n     514A      3.454742   515A      3.489220   516A      3.517474  \n     517A      3.559551   518A      3.603541   519A      3.669526  \n     520A      3.684133   521A      3.715109   522A      3.737836  \n     523A      3.778245   524A      3.804382   525A      3.868737  \n     526A      3.945854  \n\n    Final Occupation by Irrep:\n              A \n    DOCC [    78 ]\n\n  @DF-RKS Final Energy: -1083.95732381351854\n\n   => Energetics <=\n\n    Nuclear Repulsion Energy =           1842.1167887086446626\n    One-Electron Energy =               -5135.8727658331517887\n    Two-Electron Energy =                2279.2111414470086856\n    DFT Exchange-Correlation Energy =     -69.4102866960203073\n    Empirical Dispersion Energy =          -0.0022014400000000\n    VV10 Nonlocal Energy =                  0.0000000000000000\n    Total Energy =                      -1083.9573238135183146\n\nComputation Completed\n\n\nProperties will be evaluated at   0.000000,   0.000000,   0.000000 [a0]\n\nProperties computed using the SCF density matrix\n\n  Nuclear Dipole Moment: [e a0]\n     X:    -6.9281      Y:     3.1257      Z:     6.6352\n\n  Electronic Dipole Moment: [e a0]\n     X:     3.3793      Y:    -1.1773      Z:    -3.2037\n\n  Dipole Moment: [e a0]\n     X:    -3.5488      Y:     1.9484      Z:     3.4315     Total:     5.3071\n\n  Dipole Moment: [D]\n     X:    -9.0201      Y:     4.9523      Z:     8.7221     Total:    13.4893\n\n\n*** tstop() called on bignimbus at Sat Apr 24 12:36:05 2021\nModule time:\n\tuser time   =     840.96 seconds =      14.02 minutes\n\tsystem time =      31.32 seconds =       0.52 minutes\n\ttotal time  =         62 seconds =       1.03 minutes\nTotal time:\n\tuser time   =     840.96 seconds =      14.02 minutes\n\tsystem time =      31.32 seconds =       0.52 minutes\n\ttotal time  =         62 seconds =       1.03 minutes\n\n    Psi4 stopped on: Saturday, 24 April 2021 12:36PM\n    Psi4 wall time for execution: 0:01:02.32\n\n*** Psi4 exiting successfully. Buy a developer a beer!\n",
 "stderr": null,
 "success": true,
 "error": null,
 "tag": "m062x-d3 def2-svpd ggg_b"
}