{
 "id": null,
 "schema_name": "qcschema_output",
 "schema_version": 1,
 "molecule": {
  "validated": true,
  "symbols": [
   "N",
   "C",
   "N",
   "C",
   "C",
   "O",
   "N",
   "C",
   "N",
   "N",
   "C",
   "H",
   "H",
   "H",
   "H",
   "H"
  ],
  "geometry": [
   1.9795091944628955,
   2.1064834459358144,
   -3.2710258001379717,
   3.442157215567254,
   0.04479224306132246,
   -3.8587306251553546,
   3.037755824719278,
   -1.9205229274148177,
   -2.447105209438357,
   1.1329118902577873,
   -1.157073572729854,
   -0.8011537541645827,
   -0.012262141769655663,
   -2.415631172284768,
   1.2151840216989083,
   0.2787556815508495,
   -4.558580598553946,
   1.9767436502584184,
   -1.7942738780763892,
   -0.8301509530256518,
   2.4756313473792826,
   -2.3895376075956043,
   1.6208238316931525,
   1.8860367962364304,
   -4.060055502500323,
   2.879381431248068,
   3.327897829960767,
   -1.3464087863428829,
   2.818910195233415,
   -0.06605029136148675,
   0.4469413067165973,
   1.3279162822471884,
   -1.2830339161563362,
   1.9190379584482444,
   3.80723695884786,
   -4.140299817848581,
   -2.720239679550724,
   -1.6994249707362516,
   3.9722944387418746,
   4.817877834900553,
   0.1317196448323844,
   -5.370511525521616,
   -4.434221275340973,
   4.678400702683921,
   2.8233409544635233,
   -4.866968558070816,
   2.102703993684897,
   4.9095985969689675
  ],
  "name": "C5H5N5O",
  "molecular_charge": 0.0,
  "molecular_multiplicity": 1,
  "masses": [
   14.00307400443,
   12.0,
   14.00307400443,
   12.0,
   12.0,
   15.99491461957,
   14.00307400443,
   12.0,
   14.00307400443,
   14.00307400443,
   12.0,
   1.00782503223,
   1.00782503223,
   1.00782503223,
   1.00782503223,
   1.00782503223
  ],
  "real": [
   true,
   true,
   true,
   true,
   true,
   true,
   true,
   true,
   true,
   true,
   true,
   true,
   true,
   true,
   true,
   true
  ],
  "atom_labels": [
   "",
   "",
   "",
   "",
   "",
   "",
   "",
   "",
   "",
   "",
   "",
   "",
   "",
   "",
   "",
   ""
  ],
  "atomic_numbers": [
   7,
   6,
   7,
   6,
   6,
   8,
   7,
   6,
   7,
   7,
   6,
   1,
   1,
   1,
   1,
   1
  ],
  "mass_numbers": [
   14,
   12,
   14,
   12,
   12,
   16,
   14,
   12,
   14,
   14,
   12,
   1,
   1,
   1,
   1,
   1
  ],
  "fragments": [
   [
    0,
    1,
    2,
    3,
    4,
    5,
    6,
    7,
    8,
    9,
    10,
    11,
    12,
    13,
    14,
    15
   ]
  ],
  "fragment_charges": [
   0.0
  ],
  "fragment_multiplicities": [
   1
  ],
  "fix_com": false,
  "fix_orientation": false,
  "provenance": {
   "creator": "QCElemental",
   "version": "v0.19.0",
   "routine": "qcelemental.molparse.from_string"
  }
 },
 "driver": "energy",
 "model": {
  "method": "dsd-pbep86-nl",
  "basis": "pcseg-1"
 },
 "keywords": {
  "guess": "SAP",
  "freeze_core": "true",
  "dft_vv10_postscf": "true"
 },
 "protocols": {},
 "extras": {
  "qcvars": {
   "CURRENT DIPOLE X": -3.387216188010601,
   "CURRENT DIPOLE Y": 6.356840603755928,
   "CURRENT DIPOLE Z": 1.0030641706635046,
   "CURRENT ENERGY": -541.1937488467989,
   "CURRENT REFERENCE ENERGY": -540.3796137643373,
   "DFT FUNCTIONAL TOTAL ENERGY": -540.3796137643373,
   "DFT TOTAL ENERGY": -541.1937488467989,
   "DFT VV10 ENERGY": 0.10466340437412071,
   "DFT XC ENERGY": -22.635122195955432,
   "DOUBLE-HYBRID CORRECTION ENERGY": -0.8141350824616364,
   "DSD-PBEP86-NL DOUBLE-HYBRID CORRECTION ENERGY": -0.8141350824616364,
   "DSD-PBEP86-NL TOTAL ENERGY": -541.1937488467989,
   "NUCLEAR REPULSION ENERGY": 594.6969861901529,
   "ONE-ELECTRON ENERGY": -1914.690515877555,
   "PCM POLARIZATION ENERGY": 0.0,
   "PE ENERGY": 0.0,
   "SCF DIPOLE X": -3.387216188010601,
   "SCF DIPOLE Y": 6.356840603755928,
   "SCF DIPOLE Z": 1.0030641706635046,
   "SCF ITERATION ENERGY": -540.4841671148001,
   "SCF ITERATIONS": 12.0,
   "SCF TOTAL ENERGY": -540.3796137643373,
   "TWO-ELECTRON ENERGY": 802.1443747146463,
   "XC GRID RADIAL POINTS": 75.0,
   "XC GRID SPHERICAL POINTS": 302.0,
   "XC GRID TOTAL POINTS": 334998.0,
   "CURRENT DIPOLE": [
    -1.332633388938234,
    2.500973532988122,
    0.3946358103168235
   ],
   "SCF DIPOLE": [
    -1.332633388938234,
    2.500973532988122,
    0.3946358103168235
   ]
  }
 },
 "provenance": {
  "creator": "Psi4",
  "version": "1.4a2.dev923",
  "routine": "psi4.schema_runner.run_qcschema",
  "wall_time": 11.959037780761719,
  "hostname": "bignimbus",
  "memory": 200.0,
  "qcengine_version": "v0.17.0",
  "cpu": "AMD EPYC Processor (with IBPB)",
  "username": "ubuntu",
  "nthreads": 32
 },
 "properties": {
  "calcinfo_nbasis": 179,
  "calcinfo_nmo": 179,
  "calcinfo_nalpha": 39,
  "calcinfo_nbeta": 39,
  "calcinfo_natom": 16,
  "nuclear_repulsion_energy": 594.6969861901529,
  "return_energy": -541.1937488467989,
  "scf_one_electron_energy": -1914.690515877555,
  "scf_two_electron_energy": 802.1443747146463,
  "scf_vv10_energy": 0.10466340437412071,
  "scf_xc_energy": -22.635122195955432,
  "scf_dipole_moment": [
   -1.332633388938234,
   2.500973532988122,
   0.3946358103168235
  ],
  "scf_total_energy": -540.3796137643373,
  "scf_iterations": 12
 },
 "wavefunction": null,
 "return_result": -541.1937488467989,
 "stdout": "\n    -----------------------------------------------------------------------\n          Psi4: An Open-Source Ab Initio Electronic Structure Package\n                               Psi4 1.4a2.dev923 \n\n                         Git: Rev {master} 5de566e \n\n\n    D. G. A. Smith, L. A. Burns, A. C. Simmonett, R. M. Parrish,\n    M. C. Schieber, R. Galvelis, P. Kraus, H. Kruse, R. Di Remigio,\n    A. Alenaizan, A. M. James, S. Lehtola, J. P. Misiewicz, M. Scheurer,\n    R. A. Shaw, J. B. Schriber, Y. Xie, Z. L. Glick, D. A. Sirianni,\n    J. S. O'Brien, J. M. Waldrop, A. Kumar, E. G. Hohenstein,\n    B. P. Pritchard, B. R. Brooks, H. F. Schaefer III, A. Yu. Sokolov,\n    K. Patkowski, A. E. DePrince III, U. Bozkaya, R. A. King,\n    F. A. Evangelista, J. M. Turney, T. D. Crawford, C. D. Sherrill,\n    J. Chem. Phys. 152(18) 184108 (2020). https://doi.org/10.1063/5.0006002\n\n                            Additional Code Authors\n    E. T. Seidl, C. L. Janssen, E. F. Valeev, M. L. Leininger,\n    J. F. Gonthier, R. M. Richard, H. R. McAlexander, M. Saitow, X. Wang,\n    P. Verma, and M. H. Lechner\n\n             Previous Authors, Complete List of Code Contributors,\n                       and Citations for Specific Modules\n    https://github.com/psi4/psi4/blob/master/codemeta.json\n    https://github.com/psi4/psi4/graphs/contributors\n    http://psicode.org/psi4manual/master/introduction.html#citing-psifour\n\n    -----------------------------------------------------------------------\n\n\n    Psi4 started on: Monday, 17 May 2021 03:00PM\n\n    Process ID: 2514415\n    Host:       bignimbus\n    PSIDATADIR: /home/ubuntu/pk/Applications/miniconda3/envs/psi4-1.4a2.dev923/share/psi4\n    Memory:     186.3 GiB\n    Threads:    32\n    \n  ==> Input QCSchema <==\n\n--------------------------------------------------------------------------\n{'driver': 'energy',\n 'extras': {},\n 'id': None,\n 'keywords': {'dft_vv10_postscf': 'true', 'freeze_core': 'true', 'guess': 'SAP'},\n 'model': {'basis': 'pcseg-1', 'method': 'dsd-pbep86-nl'},\n 'molecule': {'atom_labels': ['', '', '', '', '', '', '', '', '', '', '', '', '', '', '', ''],\n              'atomic_numbers': [7, 6, 7, 6, 6, 8, 7, 6, 7, 7, 6, 1, 1, 1, 1, 1],\n              'fix_com': False,\n              'fix_orientation': False,\n              'fragment_charges': [0.0],\n              'fragment_multiplicities': [1],\n              'fragments': [[0, 1, 2, 3, 4, 5, 6, 7, 8, 9, 10, 11, 12, 13, 14, 15]],\n              'geometry': [1.9795091944628904, 2.10648344593581, -3.2710258001380055, 3.4421572155672493,\n                           0.044792243061317905, -3.8587306251553883, 3.037755824719273, -1.9205229274148223,\n                           -2.4471052094383907, 1.1329118902577822, -1.1570735727298587, -0.8011537541646163,\n                           -0.012262141769660673, -2.4156311722847725, 1.2151840216988745, 0.2787556815508445,\n                           -4.5585805985539505, 1.9767436502583846, -1.7942738780763943, -0.8301509530256563,\n                           2.475631347379249, -2.389537607595609, 1.6208238316931478, 1.8860367962363966,\n                           -4.060055502500329, 2.8793814312480634, 3.327897829960733, -1.346408786342888,\n                           2.8189101952334106, -0.06605029136152041, 0.4469413067165923, 1.3279162822471837,\n                           -1.28303391615637, 1.9190379584482393, 3.8072369588478554, -4.140299817848614,\n                           -2.720239679550729, -1.6994249707362563, 3.972294438741841, 4.817877834900548,\n                           0.13171964483237986, -5.37051152552165, -4.434221275340978, 4.678400702683916,\n                           2.8233409544634895, -4.8669685580708215, 2.1027039936848926, 4.909598596968934],\n              'mass_numbers': [14, 12, 14, 12, 12, 16, 14, 12, 14, 14, 12, 1, 1, 1, 1, 1],\n              'masses': [14.00307400443, 12.0, 14.00307400443, 12.0, 12.0, 15.99491461957, 14.00307400443, 12.0,\n                         14.00307400443, 14.00307400443, 12.0, 1.00782503223, 1.00782503223, 1.00782503223,\n                         1.00782503223, 1.00782503223],\n              'molecular_charge': 0.0,\n              'molecular_multiplicity': 1,\n              'name': 'C5H5N5O',\n              'provenance': {'creator': 'QCElemental',\n                             'routine': 'qcelemental.molparse.from_string',\n                             'version': 'v0.19.0'},\n              'real': [True, True, True, True, True, True, True, True, True, True, True, True, True, True, True, True],\n              'symbols': ['N', 'C', 'N', 'C', 'C', 'O', 'N', 'C', 'N', 'N', 'C', 'H', 'H', 'H', 'H', 'H'],\n              'validated': True},\n 'protocols': {},\n 'provenance': {'creator': 'QCElemental', 'routine': 'qcelemental.models.results', 'version': 'v0.17.0'},\n 'schema_name': 'qcschema_input',\n 'schema_version': 1}\n--------------------------------------------------------------------------\n\nScratch directory: /home/ubuntu/pk/scratch/tmpqw9hgn8u_psi_scratch/\n\n*** tstart() called on bignimbus\n*** at Mon May 17 15:00:31 2021\n\n   => Loading Basis Set <=\n\n    Name: PCSEG-1\n    Role: ORBITAL\n    Keyword: BASIS\n    atoms 1, 3, 7, 9-10 entry N          line   111 file /home/ubuntu/pk/Applications/miniconda3/envs/psi4-1.4a2.dev923/share/psi4/basis/pcseg-1.gbs \n    atoms 2, 4-5, 8, 11 entry C          line    90 file /home/ubuntu/pk/Applications/miniconda3/envs/psi4-1.4a2.dev923/share/psi4/basis/pcseg-1.gbs \n    atoms 6             entry O          line   132 file /home/ubuntu/pk/Applications/miniconda3/envs/psi4-1.4a2.dev923/share/psi4/basis/pcseg-1.gbs \n    atoms 12-16         entry H          line    13 file /home/ubuntu/pk/Applications/miniconda3/envs/psi4-1.4a2.dev923/share/psi4/basis/pcseg-1.gbs \n\n   => DSD-PBEP86-NL: Empirical Dispersion <=\n\n    Grimme's -NL (DFT plus VV10 correlation) \n    Hujo, W.; Grimme, S; (2011), J. Chem. Theory Comput.; 7:3866\n    Parametrisation from:    M. K. Kesharwani, A. Karton, J.M. L. Martin, J. Chem. Theory Comput. 12, 444-454, 2016\n\n         b =      12.800000\n         c =       0.009300\n\n\n         ---------------------------------------------------------\n                                   SCF\n               by Justin Turney, Rob Parrish, Andy Simmonett\n                          and Daniel G. A. Smith\n                              RKS Reference\n                       32 Threads, 190734 MiB Core\n         ---------------------------------------------------------\n\n  ==> Geometry <==\n\n    Molecular point group: c1\n    Full point group: C1\n\n    Geometry (in Bohr), charge = 0, multiplicity = 1:\n\n       Center              X                  Y                   Z               Mass       \n    ------------   -----------------  -----------------  -----------------  -----------------\n         N            1.979509194463     2.106483445936    -3.271025800138    14.003074004430\n         C            3.442157215567     0.044792243061    -3.858730625155    12.000000000000\n         N            3.037755824719    -1.920522927415    -2.447105209438    14.003074004430\n         C            1.132911890258    -1.157073572730    -0.801153754165    12.000000000000\n         C           -0.012262141770    -2.415631172285     1.215184021699    12.000000000000\n         O            0.278755681551    -4.558580598554     1.976743650258    15.994914619570\n         N           -1.794273878076    -0.830150953026     2.475631347379    14.003074004430\n         C           -2.389537607596     1.620823831693     1.886036796236    12.000000000000\n         N           -4.060055502500     2.879381431248     3.327897829961    14.003074004430\n         N           -1.346408786343     2.818910195233    -0.066050291361    14.003074004430\n         C            0.446941306717     1.327916282247    -1.283033916156    12.000000000000\n         H            1.919037958448     3.807236958848    -4.140299817849     1.007825032230\n         H           -2.720239679551    -1.699424970736     3.972294438742     1.007825032230\n         H            4.817877834901     0.131719644832    -5.370511525522     1.007825032230\n         H           -4.434221275341     4.678400702684     2.823340954464     1.007825032230\n         H           -4.866968558071     2.102703993685     4.909598596969     1.007825032230\n\n  Running in c1 symmetry.\n\n  Rotational constants: A =      0.06486  B =      0.03693  C =      0.02354 [cm^-1]\n  Rotational constants: A =   1944.44089  B =   1107.15421  C =    705.76789 [MHz]\n  Nuclear repulsion =  594.696986190152870\n\n  Charge       = 0\n  Multiplicity = 1\n  Electrons    = 78\n  Nalpha       = 39\n  Nbeta        = 39\n\n  ==> Algorithm <==\n\n  SCF Algorithm Type is DF.\n  DIIS enabled.\n  MOM disabled.\n  Fractional occupation disabled.\n  Guess Type is SAP.\n  Energy threshold   = 1.00e-06\n  Density threshold  = 1.00e-06\n  Integral threshold = 0.00e+00\n\n  ==> Primary Basis <==\n\n  Basis Set: PCSEG-1\n    Blend: PCSEG-1\n    Number of shells: 81\n    Number of basis function: 179\n    Number of Cartesian functions: 190\n    Spherical Harmonics?: true\n    Max angular momentum: 2\n\n  ==> DFT Potential <==\n\n   => Composite Functional: DSD-PBEP86-NL <= \n\n    DSD-PBEP86-NL (D3BJ parameters) VV10 SCS Double Hybrid XC Functional\n\n    S. Kozuch, J.M.L. Martin, J. Comp. Chem., 34, 2327-2344, 2013\n\n\n    Deriv               =              1\n    GGA                 =           TRUE\n    Meta                =          FALSE\n\n    Exchange Hybrid     =           TRUE\n    MP2 Hybrid          =           TRUE\n\n   => Exchange Functionals <=\n\n    0.3100     XC_GGA_X_PBE\n\n   => Exact (HF) Exchange <=\n\n    0.6900               HF \n\n   => Correlation Functionals <=\n\n    0.4400     XC_GGA_C_P86\n\n   => MP2 Correlation <=\n\n    MP2 SCS Hybrid      =           TRUE\n    MP2 OS Alpha        =       0.520000\n    MP2 SS Alpha        =       0.220000\n\n   => LibXC Density Thresholds  <==\n\n    XC_GGA_C_P86:  1.00E-25 \n    XC_GGA_X_PBE:  1.00E-32 \n\n   => VV10 Non-Local Parameters <=\n\n    VV10 B              =     1.2800E+01\n    VV10 C              =     9.3000E-03\n\n   => Molecular Quadrature <=\n\n    Radial Scheme          =       TREUTLER\n    Pruning Scheme         =           NONE\n    Nuclear Scheme         =       TREUTLER\n\n    BS radius alpha        =              1\n    Pruning alpha          =              1\n    Radial Points          =             75\n    Spherical Points       =            302\n    Total Points           =         334998\n    Total Blocks           =           2502\n    Max Points             =            256\n    Max Functions          =            167\n    Weights Tolerance      =       1.00E-15\n\n   => Loading Basis Set <=\n\n    Name: (PCSEG-1 AUX)\n    Role: JKFIT\n    Keyword: DF_BASIS_SCF\n    atoms 1, 3, 7, 9-10 entry N          line   258 file /home/ubuntu/pk/Applications/miniconda3/envs/psi4-1.4a2.dev923/share/psi4/basis/def2-universal-jkfit.gbs \n    atoms 2, 4-5, 8, 11 entry C          line   198 file /home/ubuntu/pk/Applications/miniconda3/envs/psi4-1.4a2.dev923/share/psi4/basis/def2-universal-jkfit.gbs \n    atoms 6             entry O          line   318 file /home/ubuntu/pk/Applications/miniconda3/envs/psi4-1.4a2.dev923/share/psi4/basis/def2-universal-jkfit.gbs \n    atoms 12-16         entry H          line    18 file /home/ubuntu/pk/Applications/miniconda3/envs/psi4-1.4a2.dev923/share/psi4/basis/def2-universal-jkfit.gbs \n\n  ==> Integral Setup <==\n\n  DFHelper Memory: AOs need 0.219 GiB; user supplied 138.570 GiB. Using in-core AOs.\n\n  ==> MemDFJK: Density-Fitted J/K Matrices <==\n\n    J tasked:                   Yes\n    K tasked:                   Yes\n    wK tasked:                   No\n    OpenMP threads:              32\n    Memory [MiB]:            141895\n    Algorithm:                 Core\n    Schwarz Cutoff:           1E-12\n    Mask sparsity (%):      10.0746\n    Fitting Condition:        1E-10\n\n   => Auxiliary Basis Set <=\n\n  Basis Set: (PCSEG-1 AUX)\n    Blend: DEF2-UNIVERSAL-JKFIT\n    Number of shells: 305\n    Number of basis function: 927\n    Number of Cartesian functions: 1103\n    Spherical Harmonics?: true\n    Max angular momentum: 4\n\n  Cached 100.0% of DFT collocation blocks in 1.128 [GiB].\n\n  Minimum eigenvalue in the overlap matrix is 9.5370649157E-04.\n  Reciprocal condition number of the overlap matrix is 1.5714793540E-04.\n    Using symmetric orthogonalization.\n\n  ==> Pre-Iterations <==\n\n  SCF Guess: Superposition of Atomic Potentials (doi:10.1021/acs.jctc.8b01089).\n\n  ==> SAP guess <==\n\n   => Molecular Quadrature <=\n\n    Radial Scheme          =       TREUTLER\n    Pruning Scheme         =           NONE\n    Nuclear Scheme         =       TREUTLER\n\n    BS radius alpha        =              1\n    Pruning alpha          =              1\n    Radial Points          =             75\n    Spherical Points       =            302\n    Total Points           =         334998\n    Total Blocks           =           2502\n    Max Points             =            256\n    Max Functions          =            167\n    Weights Tolerance      =       1.00E-15\n\n   -------------------------------------------------------\n    Irrep   Nso     Nmo     Nalpha   Nbeta   Ndocc  Nsocc\n   -------------------------------------------------------\n     A        179     179      39      39      39       0\n   -------------------------------------------------------\n    Total     179     179      39      39      39       0\n   -------------------------------------------------------\n\n  VV10: post-SCF option active \n \n  ==> Iterations <==\n\n                           Total Energy        Delta E     RMS |[F,P]|\n\n   @DF-RKS iter   1:  -535.63104122962886   -5.35631e+02   1.75029e-02 DIIS\n   @DF-RKS iter   2:  -528.68491083093488    6.94613e+00   2.44037e-02 DIIS\n   @DF-RKS iter   3:  -540.08547323677624   -1.14006e+01   4.80574e-03 DIIS\n   @DF-RKS iter   4:  -540.37248213663020   -2.87009e-01   2.79544e-03 DIIS\n   @DF-RKS iter   5:  -540.48192266128160   -1.09441e-01   2.91017e-04 DIIS\n   @DF-RKS iter   6:  -540.48349054717767   -1.56789e-03   1.96659e-04 DIIS\n   @DF-RKS iter   7:  -540.48408970393598   -5.99157e-04   5.15741e-05 DIIS\n   @DF-RKS iter   8:  -540.48415601207887   -6.63081e-05   2.16319e-05 DIIS\n   @DF-RKS iter   9:  -540.48416599185214   -9.97977e-06   5.73492e-06 DIIS\n   @DF-RKS iter  10:  -540.48416692577359   -9.33921e-07   2.53784e-06 DIIS\n   @DF-RKS iter  11:  -540.48416706471903   -1.38945e-07   1.08244e-06 DIIS\n   @DF-RKS iter  12:  -540.48416711480013   -5.00811e-08   3.50416e-07 DIIS\n  Energy and wave function converged.\n\n  ==> Computing Non-Self-Consistent VV10 Energy Correction <==\n\n\n  ==> Post-Iterations <==\n\n    Orbital Energies [Eh]\n    ---------------------\n\n    Doubly Occupied:                                                      \n\n       1A    -19.954409     2A    -15.141740     3A    -15.141116  \n       4A    -15.128991     5A    -15.075427     6A    -15.066177  \n       7A    -10.976787     8A    -10.938535     9A    -10.907727  \n      10A    -10.888352    11A    -10.829064    12A     -1.278806  \n      13A     -1.244117    14A     -1.225661    15A     -1.121643  \n      16A     -1.101860    17A     -1.072295    18A     -0.947851  \n      19A     -0.831133    20A     -0.813203    21A     -0.766806  \n      22A     -0.737852    23A     -0.681862    24A     -0.675377  \n      25A     -0.648370    26A     -0.619266    27A     -0.597896  \n      28A     -0.572858    29A     -0.546230    30A     -0.544792  \n      31A     -0.543315    32A     -0.500667    33A     -0.431814  \n      34A     -0.404484    35A     -0.385120    36A     -0.379922  \n      37A     -0.372272    38A     -0.368354    39A     -0.274798  \n\n    Virtual:                                                              \n\n      40A      0.071504    41A      0.075984    42A      0.084854  \n      43A      0.108836    44A      0.127050    45A      0.133166  \n      46A      0.155914    47A      0.159126    48A      0.265887  \n      49A      0.276561    50A      0.282039    51A      0.298104  \n      52A      0.309655    53A      0.344652    54A      0.363076  \n      55A      0.386643    56A      0.407217    57A      0.425281  \n      58A      0.457473    59A      0.482121    60A      0.488557  \n      61A      0.499741    62A      0.534563    63A      0.546906  \n      64A      0.576230    65A      0.583993    66A      0.596712  \n      67A      0.599033    68A      0.618767    69A      0.634796  \n      70A      0.654996    71A      0.682176    72A      0.689814  \n      73A      0.711845    74A      0.714350    75A      0.765666  \n      76A      0.786217    77A      0.793431    78A      0.808242  \n      79A      0.827669    80A      0.830812    81A      0.844972  \n      82A      0.853597    83A      0.867930    84A      0.888596  \n      85A      0.892357    86A      0.905175    87A      0.940221  \n      88A      0.961485    89A      0.991485    90A      1.006474  \n      91A      1.032740    92A      1.078002    93A      1.083640  \n      94A      1.115954    95A      1.135511    96A      1.163941  \n      97A      1.228953    98A      1.254363    99A      1.299006  \n     100A      1.333506   101A      1.352152   102A      1.378671  \n     103A      1.385553   104A      1.444830   105A      1.467476  \n     106A      1.486244   107A      1.530924   108A      1.542398  \n     109A      1.557372   110A      1.575967   111A      1.590887  \n     112A      1.606155   113A      1.614183   114A      1.625548  \n     115A      1.658882   116A      1.703035   117A      1.817950  \n     118A      1.861323   119A      1.941600   120A      1.966831  \n     121A      2.011080   122A      2.020432   123A      2.029543  \n     124A      2.053081   125A      2.063564   126A      2.069034  \n     127A      2.099561   128A      2.128842   129A      2.141003  \n     130A      2.164453   131A      2.169267   132A      2.197274  \n     133A      2.210394   134A      2.249469   135A      2.268937  \n     136A      2.292965   137A      2.330100   138A      2.354278  \n     139A      2.384065   140A      2.393320   141A      2.429992  \n     142A      2.483374   143A      2.490214   144A      2.519717  \n     145A      2.543752   146A      2.565407   147A      2.590685  \n     148A      2.603946   149A      2.610946   150A      2.633584  \n     151A      2.647424   152A      2.654003   153A      2.679611  \n     154A      2.703580   155A      2.784759   156A      2.809771  \n     157A      2.830620   158A      2.836195   159A      2.844654  \n     160A      2.900116   161A      2.907731   162A      2.946427  \n     163A      2.974095   164A      2.995120   165A      3.027443  \n     166A      3.120990   167A      3.143158   168A      3.150196  \n     169A      3.185299   170A      3.283393   171A      3.300051  \n     172A      3.389865   173A      3.453346   174A      3.475333  \n     175A      3.548759   176A      3.601370   177A      3.817606  \n     178A      3.854804   179A      3.917756  \n\n    Final Occupation by Irrep:\n              A \n    DOCC [    39 ]\n\n  @DF-RKS Final Energy:  -540.37961376433725\n\n   => Energetics <=\n\n    Nuclear Repulsion Energy =            594.6969861901528702\n    One-Electron Energy =               -1914.6905158775550717\n    Two-Electron Energy =                 802.1443747146463465\n    DFT Exchange-Correlation Energy =     -22.6351221959554323\n    Empirical Dispersion Energy =           0.0000000000000000\n    VV10 Nonlocal Energy =                  0.1046634043741207\n    Total Energy =                       -540.3796137643372504\n\nComputation Completed\n\n\nProperties will be evaluated at   0.000000,   0.000000,   0.000000 [a0]\n\nProperties computed using the SCF density matrix\n\n  Nuclear Dipole Moment: [e a0]\n     X:    -2.6175      Y:     4.4557      Z:     1.0936\n\n  Electronic Dipole Moment: [e a0]\n     X:     1.2849      Y:    -1.9547      Z:    -0.6990\n\n  Dipole Moment: [e a0]\n     X:    -1.3326      Y:     2.5010      Z:     0.3946     Total:     2.8612\n\n  Dipole Moment: [D]\n     X:    -3.3872      Y:     6.3568      Z:     1.0031     Total:     7.2725\n\n\n*** tstop() called on bignimbus at Mon May 17 15:00:37 2021\nModule time:\n\tuser time   =     162.64 seconds =       2.71 minutes\n\tsystem time =       4.51 seconds =       0.08 minutes\n\ttotal time  =          6 seconds =       0.10 minutes\nTotal time:\n\tuser time   =     162.64 seconds =       2.71 minutes\n\tsystem time =       4.51 seconds =       0.08 minutes\n\ttotal time  =          6 seconds =       0.10 minutes\n\n*** tstart() called on bignimbus\n*** at Mon May 17 15:00:37 2021\n\n   => Loading Basis Set <=\n\n    Name: (PCSEG-1 AUX)\n    Role: RIFIT\n    Keyword: DF_BASIS_MP2\n    atoms 1, 3, 7, 9-10 entry N          line   193 file /home/ubuntu/pk/Applications/miniconda3/envs/psi4-1.4a2.dev923/share/psi4/basis/def2-svp-ri.gbs \n    atoms 2, 4-5, 8, 11 entry C          line   153 file /home/ubuntu/pk/Applications/miniconda3/envs/psi4-1.4a2.dev923/share/psi4/basis/def2-svp-ri.gbs \n    atoms 6             entry O          line   233 file /home/ubuntu/pk/Applications/miniconda3/envs/psi4-1.4a2.dev923/share/psi4/basis/def2-svp-ri.gbs \n    atoms 12-16         entry H          line    22 file /home/ubuntu/pk/Applications/miniconda3/envs/psi4-1.4a2.dev923/share/psi4/basis/def2-svp-ri.gbs \n\n\t --------------------------------------------------------\n\t                          DF-MP2                         \n\t      2nd-Order Density-Fitted Moller-Plesset Theory     \n\t              RMP2 Wavefunction,  32 Threads             \n\t                                                         \n\t        Rob Parrish, Justin Turney, Andy Simmonett,      \n\t           Ed Hohenstein, and C. David Sherrill          \n\t --------------------------------------------------------\n\n   => Auxiliary Basis Set <=\n\n  Basis Set: (PCSEG-1 AUX)\n    Blend: DEF2-SVP-RI\n    Number of shells: 206\n    Number of basis function: 598\n    Number of Cartesian functions: 680\n    Spherical Harmonics?: true\n    Max angular momentum: 3\n\n\t --------------------------------------------------------\n\t                 NBF =   179, NAUX =   598\n\t --------------------------------------------------------\n\t   CLASS    FOCC     OCC    AOCC    AVIR     VIR    FVIR\n\t   PAIRS      11      39      28     140     140       0\n\t --------------------------------------------------------\n\n\t-----------------------------------------------------------\n\t ==================> DF-MP2 Energies <==================== \n\t-----------------------------------------------------------\n\t Reference Energy          =    -540.3796137643372504 [Eh]\n\t Singles Energy            =      -0.0000000000000000 [Eh]\n\t Same-Spin Energy          =      -0.5218599683404561 [Eh]\n\t Opposite-Spin Energy      =      -1.3448574796668000 [Eh]\n\t Correlation Energy        =      -1.8667174480072561 [Eh]\n\t Total Energy              =    -542.2463312123445576 [Eh]\n\t-----------------------------------------------------------\n\t ================> DF-SCS-MP2 Energies <================== \n\t-----------------------------------------------------------\n\t SCS Same-Spin Scale       =       0.2200000000000000 [-]\n\t SCS Opposite-Spin Scale   =       0.5200000000000000 [-]\n\t SCS Same-Spin Energy      =      -0.1148091930349004 [Eh]\n\t SCS Opposite-Spin Energy  =      -0.6993258894267360 [Eh]\n\t SCS Correlation Energy    =      -1.7877822983803120 [Eh]\n\t SCS Total Energy          =    -542.1673960627175575 [Eh]\n\t-----------------------------------------------------------\n\n\n\n    DSD-PBEP86-NL Energy Summary\n    ----------------------------\n    DFT Reference Energy                  =  -540.3796137643372504\n    Scaled MP2 Correlation                =    -0.8141350824616364\n    @Final double-hybrid DFT total energy =  -541.1937488467989397\n\n\n*** tstop() called on bignimbus at Mon May 17 15:00:38 2021\nModule time:\n\tuser time   =      27.48 seconds =       0.46 minutes\n\tsystem time =       0.52 seconds =       0.01 minutes\n\ttotal time  =          1 seconds =       0.02 minutes\nTotal time:\n\tuser time   =     190.16 seconds =       3.17 minutes\n\tsystem time =       5.03 seconds =       0.08 minutes\n\ttotal time  =          7 seconds =       0.12 minutes\n\n    Psi4 stopped on: Monday, 17 May 2021 03:00PM\n    Psi4 wall time for execution: 0:00:07.56\n\n*** Psi4 exiting successfully. Buy a developer a beer!\n",
 "stderr": null,
 "success": true,
 "error": null,
 "tag": "dsd-pbep86-nl pcseg-1 ggg_a"
}