{
 "id": null,
 "schema_name": "qcschema_output",
 "schema_version": 1,
 "molecule": {
  "validated": true,
  "symbols": [
   "C",
   "C",
   "C",
   "C",
   "C",
   "N",
   "N",
   "N",
   "N",
   "N",
   "H",
   "H",
   "H",
   "H",
   "H"
  ],
  "geometry": [
   -2.6005148446510584,
   0.05786205884492528,
   -0.05834799091184591,
   -0.1816654040650379,
   -1.05140717679882,
   0.03991776761196013,
   1.8611285375548743,
   0.6342285271095628,
   0.08527119462294801,
   -0.6465380309276636,
   3.967705412417172,
   0.03235886311012896,
   3.108347780357041,
   -3.3625422282337434,
   0.004012971228262096,
   -2.7857080049459246,
   2.5976539714602467,
   -0.05267881253547342,
   1.7553038745292358,
   3.1645718090975947,
   0.09849927750115343,
   0.6309168298818281,
   -3.543955936277695,
   -0.011104837775400235,
   3.9719526196912684,
   -0.9002290867621937,
   0.08716092074840669,
   -4.769920436676645,
   -1.3273071911156629,
   -0.11126032242466495,
   -0.9092099623663019,
   6.004830175660711,
   0.019130780231924428,
   4.406589628546569,
   -4.938573816865572,
   -0.07157607379005133,
   5.787979426256241,
   -0.31630371399572466,
   -0.04700963415909916,
   -6.351621203684847,
   -0.38811330676312217,
   -0.6366041853019416,
   -4.6414190601455125,
   -3.160341532809756,
   -0.6403836375528572
  ],
  "name": "C5H5N5",
  "molecular_charge": 0.0,
  "molecular_multiplicity": 1,
  "masses": [
   12.0,
   12.0,
   12.0,
   12.0,
   12.0,
   14.00307400443,
   14.00307400443,
   14.00307400443,
   14.00307400443,
   14.00307400443,
   1.00782503223,
   1.00782503223,
   1.00782503223,
   1.00782503223,
   1.00782503223
  ],
  "real": [
   true,
   true,
   true,
   true,
   true,
   true,
   true,
   true,
   true,
   true,
   true,
   true,
   true,
   true,
   true
  ],
  "atom_labels": [
   "",
   "",
   "",
   "",
   "",
   "",
   "",
   "",
   "",
   "",
   "",
   "",
   "",
   "",
   ""
  ],
  "atomic_numbers": [
   6,
   6,
   6,
   6,
   6,
   7,
   7,
   7,
   7,
   7,
   1,
   1,
   1,
   1,
   1
  ],
  "mass_numbers": [
   12,
   12,
   12,
   12,
   12,
   14,
   14,
   14,
   14,
   14,
   1,
   1,
   1,
   1,
   1
  ],
  "fragments": [
   [
    0,
    1,
    2,
    3,
    4,
    5,
    6,
    7,
    8,
    9,
    10,
    11,
    12,
    13,
    14
   ]
  ],
  "fragment_charges": [
   0.0
  ],
  "fragment_multiplicities": [
   1
  ],
  "fix_com": false,
  "fix_orientation": false,
  "provenance": {
   "creator": "QCElemental",
   "version": "v0.19.0",
   "routine": "qcelemental.molparse.from_string"
  }
 },
 "driver": "energy",
 "model": {
  "method": "b3lyp-d3bj",
  "basis": "def2-svpd"
 },
 "keywords": {
  "guess": "SAP"
 },
 "protocols": {},
 "extras": {
  "qcvars": {
   "2-BODY DISPERSION CORRECTION ENERGY": -0.02758805,
   "B3LYP-D3(BJ) DISPERSION CORRECTION ENERGY": -0.02758805,
   "CURRENT DIPOLE X": 1.5272399235228686,
   "CURRENT DIPOLE Y": -1.8941576760233585,
   "CURRENT DIPOLE Z": -0.9102988387998069,
   "CURRENT ENERGY": -467.04383873726033,
   "CURRENT REFERENCE ENERGY": -467.04383873726033,
   "DFT FUNCTIONAL TOTAL ENERGY": -467.01625068726037,
   "DFT TOTAL ENERGY": -467.0438387372604,
   "DFT VV10 ENERGY": 0.0,
   "DFT XC ENERGY": -51.36846646672521,
   "DISPERSION CORRECTION ENERGY": -0.02758805,
   "NUCLEAR REPULSION ENERGY": 501.2235939031376,
   "ONE-ELECTRON ENERGY": -1625.6451319785285,
   "PCM POLARIZATION ENERGY": 0.0,
   "PE ENERGY": 0.0,
   "SCF DIPOLE X": 1.5272399235228686,
   "SCF DIPOLE Y": -1.8941576760233585,
   "SCF DIPOLE Z": -0.9102988387998069,
   "SCF ITERATION ENERGY": -467.04383873726033,
   "SCF ITERATIONS": 11.0,
   "SCF TOTAL ENERGY": -467.04383873726033,
   "TWO-ELECTRON ENERGY": 708.7737538548556,
   "XC GRID RADIAL POINTS": 75.0,
   "XC GRID SPHERICAL POINTS": 302.0,
   "XC GRID TOTAL POINTS": 316517.0,
   "CURRENT DIPOLE": [
    0.6008624197681947,
    -0.7452189712357615,
    -0.35813912049375496
   ],
   "SCF DIPOLE": [
    0.6008624197681947,
    -0.7452189712357615,
    -0.35813912049375496
   ]
  }
 },
 "provenance": {
  "creator": "Psi4",
  "version": "1.4a2.dev923",
  "routine": "psi4.schema_runner.run_qcschema",
  "memory": 200.0,
  "hostname": "bignimbus",
  "username": "ubuntu",
  "nthreads": 32,
  "qcengine_version": "v0.17.0",
  "cpu": "AMD EPYC Processor (with IBPB)",
  "wall_time": 12.60930848121643
 },
 "properties": {
  "calcinfo_nbasis": 240,
  "calcinfo_nmo": 240,
  "calcinfo_nalpha": 35,
  "calcinfo_nbeta": 35,
  "calcinfo_natom": 15,
  "nuclear_repulsion_energy": 501.2235939031376,
  "return_energy": -467.04383873726033,
  "scf_one_electron_energy": -1625.6451319785285,
  "scf_two_electron_energy": 708.7737538548556,
  "scf_xc_energy": -51.36846646672521,
  "scf_dispersion_correction_energy": -0.02758805,
  "scf_dipole_moment": [
   0.6008624197681947,
   -0.7452189712357615,
   -0.35813912049375496
  ],
  "scf_total_energy": -467.04383873726033,
  "scf_iterations": 11
 },
 "wavefunction": null,
 "return_result": -467.04383873726033,
 "stdout": "\n    -----------------------------------------------------------------------\n          Psi4: An Open-Source Ab Initio Electronic Structure Package\n                               Psi4 1.4a2.dev923 \n\n                         Git: Rev {master} 5de566e \n\n\n    D. G. A. Smith, L. A. Burns, A. C. Simmonett, R. M. Parrish,\n    M. C. Schieber, R. Galvelis, P. Kraus, H. Kruse, R. Di Remigio,\n    A. Alenaizan, A. M. James, S. Lehtola, J. P. Misiewicz, M. Scheurer,\n    R. A. Shaw, J. B. Schriber, Y. Xie, Z. L. Glick, D. A. Sirianni,\n    J. S. O'Brien, J. M. Waldrop, A. Kumar, E. G. Hohenstein,\n    B. P. Pritchard, B. R. Brooks, H. F. Schaefer III, A. Yu. Sokolov,\n    K. Patkowski, A. E. DePrince III, U. Bozkaya, R. A. King,\n    F. A. Evangelista, J. M. Turney, T. D. Crawford, C. D. Sherrill,\n    J. Chem. Phys. 152(18) 184108 (2020). https://doi.org/10.1063/5.0006002\n\n                            Additional Code Authors\n    E. T. Seidl, C. L. Janssen, E. F. Valeev, M. L. Leininger,\n    J. F. Gonthier, R. M. Richard, H. R. McAlexander, M. Saitow, X. Wang,\n    P. Verma, and M. H. Lechner\n\n             Previous Authors, Complete List of Code Contributors,\n                       and Citations for Specific Modules\n    https://github.com/psi4/psi4/blob/master/codemeta.json\n    https://github.com/psi4/psi4/graphs/contributors\n    http://psicode.org/psi4manual/master/introduction.html#citing-psifour\n\n    -----------------------------------------------------------------------\n\n\n    Psi4 started on: Monday, 17 May 2021 03:28AM\n\n    Process ID: 2479470\n    Host:       bignimbus\n    PSIDATADIR: /home/ubuntu/pk/Applications/miniconda3/envs/psi4-1.4a2.dev923/share/psi4\n    Memory:     186.3 GiB\n    Threads:    32\n    \n  ==> Input QCSchema <==\n\n--------------------------------------------------------------------------\n{'driver': 'energy',\n 'extras': {},\n 'id': None,\n 'keywords': {'guess': 'SAP'},\n 'model': {'basis': 'def2-svpd', 'method': 'b3lyp-d3bj'},\n 'molecule': {'atom_labels': ['', '', '', '', '', '', '', '', '', '', '', '', '', '', ''],\n              'atomic_numbers': [6, 6, 6, 6, 6, 7, 7, 7, 7, 7, 1, 1, 1, 1, 1],\n              'fix_com': False,\n              'fix_orientation': False,\n              'fragment_charges': [0.0],\n              'fragment_multiplicities': [1],\n              'fragments': [[0, 1, 2, 3, 4, 5, 6, 7, 8, 9, 10, 11, 12, 13, 14]],\n              'geometry': [-2.600514844651058, 0.0578620588449254, -0.05834799091184806, -0.1816654040650374,\n                           -1.0514071767988198, 0.03991776761195798, 1.8611285375548747, 0.6342285271095629,\n                           0.08527119462294586, -0.6465380309276632, 3.967705412417172, 0.03235886311012681,\n                           3.1083477803570414, -3.3625422282337434, 0.004012971228259943, -2.785708004945924,\n                           2.5976539714602467, -0.05267881253547557, 1.7553038745292362, 3.1645718090975947,\n                           0.09849927750115128, 0.6309168298818285, -3.543955936277695, -0.011104837775402387,\n                           3.971952619691269, -0.9002290867621936, 0.08716092074840454, -4.769920436676644,\n                           -1.3273071911156626, -0.1112603224246671, -0.9092099623663015, 6.004830175660711,\n                           0.019130780231922273, 4.40658962854657, -4.938573816865572, -0.07157607379005348,\n                           5.787979426256242, -0.31630371399572454, -0.04700963415910131, -6.3516212036848465,\n                           -0.38811330676312206, -0.6366041853019437, -4.641419060145512, -3.160341532809756,\n                           -0.6403836375528593],\n              'mass_numbers': [12, 12, 12, 12, 12, 14, 14, 14, 14, 14, 1, 1, 1, 1, 1],\n              'masses': [12.0, 12.0, 12.0, 12.0, 12.0, 14.00307400443, 14.00307400443, 14.00307400443, 14.00307400443,\n                         14.00307400443, 1.00782503223, 1.00782503223, 1.00782503223, 1.00782503223, 1.00782503223],\n              'molecular_charge': 0.0,\n              'molecular_multiplicity': 1,\n              'name': 'C5H5N5',\n              'provenance': {'creator': 'QCElemental',\n                             'routine': 'qcelemental.molparse.from_string',\n                             'version': 'v0.19.0'},\n              'real': [True, True, True, True, True, True, True, True, True, True, True, True, True, True, True],\n              'symbols': ['C', 'C', 'C', 'C', 'C', 'N', 'N', 'N', 'N', 'N', 'H', 'H', 'H', 'H', 'H'],\n              'validated': True},\n 'protocols': {},\n 'provenance': {'creator': 'QCElemental', 'routine': 'qcelemental.models.results', 'version': 'v0.17.0'},\n 'schema_name': 'qcschema_input',\n 'schema_version': 1}\n--------------------------------------------------------------------------\n\nScratch directory: /home/ubuntu/pk/scratch/tmps1fkqnyj_psi_scratch/\n\n*** tstart() called on bignimbus\n*** at Mon May 17 03:28:27 2021\n\n   => Loading Basis Set <=\n\n    Name: DEF2-SVPD\n    Role: ORBITAL\n    Keyword: BASIS\n    atoms 1-5   entry C          line   101 file /home/ubuntu/pk/Applications/miniconda3/envs/psi4-1.4a2.dev923/share/psi4/basis/def2-svpd.gbs \n    atoms 6-10  entry N          line   125 file /home/ubuntu/pk/Applications/miniconda3/envs/psi4-1.4a2.dev923/share/psi4/basis/def2-svpd.gbs \n    atoms 11-15 entry H          line    14 file /home/ubuntu/pk/Applications/miniconda3/envs/psi4-1.4a2.dev923/share/psi4/basis/def2-svpd.gbs \n\n   => B3LYP-D3(BJ): Empirical Dispersion <=\n\n    Grimme's -D3 (BJ-damping) Dispersion Correction\n    Grimme S.; Ehrlich S.; Goerigk L. (2011), J. Comput. Chem., 32: 1456\n\n        s6 =       1.000000\n        s8 =       1.988900\n        a1 =       0.398100\n        a2 =       4.421100\n\n\n         ---------------------------------------------------------\n                                   SCF\n               by Justin Turney, Rob Parrish, Andy Simmonett\n                          and Daniel G. A. Smith\n                              RKS Reference\n                       32 Threads, 190734 MiB Core\n         ---------------------------------------------------------\n\n  ==> Geometry <==\n\n    Molecular point group: c1\n    Full point group: C1\n\n    Geometry (in Bohr), charge = 0, multiplicity = 1:\n\n       Center              X                  Y                   Z               Mass       \n    ------------   -----------------  -----------------  -----------------  -----------------\n         C           -2.600514844651     0.057862058845    -0.058347990912    12.000000000000\n         C           -0.181665404065    -1.051407176799     0.039917767612    12.000000000000\n         C            1.861128537555     0.634228527110     0.085271194623    12.000000000000\n         C           -0.646538030928     3.967705412417     0.032358863110    12.000000000000\n         C            3.108347780357    -3.362542228234     0.004012971228    12.000000000000\n         N           -2.785708004946     2.597653971460    -0.052678812535    14.003074004430\n         N            1.755303874529     3.164571809098     0.098499277501    14.003074004430\n         N            0.630916829882    -3.543955936278    -0.011104837775    14.003074004430\n         N            3.971952619691    -0.900229086762     0.087160920748    14.003074004430\n         N           -4.769920436677    -1.327307191116    -0.111260322425    14.003074004430\n         H           -0.909209962366     6.004830175661     0.019130780232     1.007825032230\n         H            4.406589628547    -4.938573816866    -0.071576073790     1.007825032230\n         H            5.787979426256    -0.316303713996    -0.047009634159     1.007825032230\n         H           -6.351621203685    -0.388113306763    -0.636604185302     1.007825032230\n         H           -4.641419060146    -3.160341532810    -0.640383637553     1.007825032230\n\n  Running in c1 symmetry.\n\n  Rotational constants: A =      0.07881  B =      0.05206  C =      0.03137 [cm^-1]\n  Rotational constants: A =   2362.65971  B =   1560.84141  C =    940.48329 [MHz]\n  Nuclear repulsion =  501.223593903137612\n\n  Charge       = 0\n  Multiplicity = 1\n  Electrons    = 70\n  Nalpha       = 35\n  Nbeta        = 35\n\n  ==> Algorithm <==\n\n  SCF Algorithm Type is DF.\n  DIIS enabled.\n  MOM disabled.\n  Fractional occupation disabled.\n  Guess Type is SAP.\n  Energy threshold   = 1.00e-06\n  Density threshold  = 1.00e-06\n  Integral threshold = 0.00e+00\n\n  ==> Primary Basis <==\n\n  Basis Set: DEF2-SVPD\n    Blend: DEF2-SVPD\n    Number of shells: 100\n    Number of basis function: 240\n    Number of Cartesian functions: 260\n    Spherical Harmonics?: true\n    Max angular momentum: 2\n\n  ==> DFT Potential <==\n\n   => Composite Functional: B3LYP-D3BJ <= \n\n    B3LYP-d3bj Hyb-GGA Exchange-Correlation Functional\n\n    P. J. Stephens, F. J. Devlin, C. F. Chabalowski, and M. J. Frisch, J. Phys. Chem. 98, 11623 (1994)\n\n    Deriv               =              1\n    GGA                 =           TRUE\n    Meta                =          FALSE\n\n    Exchange Hybrid     =           TRUE\n    MP2 Hybrid          =          FALSE\n\n   => Exchange Functionals <=\n\n    0.0800   Slater exchange\n    0.7200         Becke 88\n\n   => Exact (HF) Exchange <=\n\n    0.2000               HF \n\n   => Correlation Functionals <=\n\n    0.1900   Vosko, Wilk & Nusair (VWN5_RPA)\n    0.8100   Lee, Yang & Parr\n\n   => LibXC Density Thresholds  <==\n\n    XC_HYB_GGA_XC_B3LYP:  1.00E-32 \n\n   => Molecular Quadrature <=\n\n    Radial Scheme          =       TREUTLER\n    Pruning Scheme         =           NONE\n    Nuclear Scheme         =       TREUTLER\n\n    BS radius alpha        =              1\n    Pruning alpha          =              1\n    Radial Points          =             75\n    Spherical Points       =            302\n    Total Points           =         316516\n    Total Blocks           =           2365\n    Max Points             =            256\n    Max Functions          =            233\n    Weights Tolerance      =       1.00E-15\n\n   => Loading Basis Set <=\n\n    Name: (DEF2-SVPD AUX)\n    Role: JKFIT\n    Keyword: DF_BASIS_SCF\n    atoms 1-5   entry C          line   198 file /home/ubuntu/pk/Applications/miniconda3/envs/psi4-1.4a2.dev923/share/psi4/basis/def2-universal-jkfit.gbs \n    atoms 6-10  entry N          line   258 file /home/ubuntu/pk/Applications/miniconda3/envs/psi4-1.4a2.dev923/share/psi4/basis/def2-universal-jkfit.gbs \n    atoms 11-15 entry H          line    18 file /home/ubuntu/pk/Applications/miniconda3/envs/psi4-1.4a2.dev923/share/psi4/basis/def2-universal-jkfit.gbs \n\n  ==> Integral Setup <==\n\n  DFHelper Memory: AOs need 0.384 GiB; user supplied 137.969 GiB. Using in-core AOs.\n\n  ==> MemDFJK: Density-Fitted J/K Matrices <==\n\n    J tasked:                   Yes\n    K tasked:                   Yes\n    wK tasked:                   No\n    OpenMP threads:              32\n    Memory [MiB]:            141280\n    Algorithm:                 Core\n    Schwarz Cutoff:           1E-12\n    Mask sparsity (%):       3.0486\n    Fitting Condition:        1E-10\n\n   => Auxiliary Basis Set <=\n\n  Basis Set: (DEF2-SVPD AUX)\n    Blend: DEF2-UNIVERSAL-JKFIT\n    Number of shells: 280\n    Number of basis function: 850\n    Number of Cartesian functions: 1010\n    Spherical Harmonics?: true\n    Max angular momentum: 4\n\n  Cached 100.0% of DFT collocation blocks in 1.729 [GiB].\n\n  Minimum eigenvalue in the overlap matrix is 4.4162638354E-05.\n  Reciprocal condition number of the overlap matrix is 3.8276336757E-06.\n    Using symmetric orthogonalization.\n\n  ==> Pre-Iterations <==\n\n  SCF Guess: Superposition of Atomic Potentials (doi:10.1021/acs.jctc.8b01089).\n\n  ==> SAP guess <==\n\n   => Molecular Quadrature <=\n\n    Radial Scheme          =       TREUTLER\n    Pruning Scheme         =           NONE\n    Nuclear Scheme         =       TREUTLER\n\n    BS radius alpha        =              1\n    Pruning alpha          =              1\n    Radial Points          =             75\n    Spherical Points       =            302\n    Total Points           =         316517\n    Total Blocks           =           2365\n    Max Points             =            256\n    Max Functions          =            233\n    Weights Tolerance      =       1.00E-15\n\n   -------------------------------------------------------\n    Irrep   Nso     Nmo     Nalpha   Nbeta   Ndocc  Nsocc\n   -------------------------------------------------------\n     A        240     240      35      35      35       0\n   -------------------------------------------------------\n    Total     240     240      35      35      35       0\n   -------------------------------------------------------\n\n  ==> Iterations <==\n\n                           Total Energy        Delta E     RMS |[F,P]|\n\n   @DF-RKS iter   1:  -464.23890943511026   -4.64239e+02   9.40343e-03 DIIS\n   @DF-RKS iter   2:  -449.62115799335692    1.46178e+01   2.02268e-02 DIIS\n   @DF-RKS iter   3:  -466.70901698722906   -1.70879e+01   3.29524e-03 DIIS\n   @DF-RKS iter   4:  -466.67412835031939    3.48886e-02   3.70091e-03 DIIS\n   @DF-RKS iter   5:  -467.02720840024205   -3.53080e-01   7.91494e-04 DIIS\n   @DF-RKS iter   6:  -467.04009135480760   -1.28830e-02   3.74754e-04 DIIS\n   @DF-RKS iter   7:  -467.04359244125664   -3.50109e-03   9.41296e-05 DIIS\n   @DF-RKS iter   8:  -467.04379041073179   -1.97969e-04   4.09474e-05 DIIS\n   @DF-RKS iter   9:  -467.04383730701403   -4.68963e-05   7.29143e-06 DIIS\n   @DF-RKS iter  10:  -467.04383840889881   -1.10188e-06   3.64216e-06 DIIS\n   @DF-RKS iter  11:  -467.04383873726033   -3.28362e-07   8.12685e-07 DIIS\n  Energy and wave function converged.\n\n\n  ==> Post-Iterations <==\n\n    Orbital Energies [Eh]\n    ---------------------\n\n    Doubly Occupied:                                                      \n\n       1A    -14.403649     2A    -14.359353     3A    -14.337713  \n       4A    -14.330644     5A    -14.325135     6A    -10.280686  \n       7A    -10.272549     8A    -10.266927     9A    -10.254240  \n      10A    -10.221524    11A     -1.035975    12A     -0.977115  \n      13A     -0.934364    14A     -0.887871    15A     -0.856992  \n      16A     -0.766382    17A     -0.670784    18A     -0.654782  \n      19A     -0.634841    20A     -0.587872    21A     -0.556411  \n      22A     -0.521549    23A     -0.507440    24A     -0.476181  \n      25A     -0.468450    26A     -0.451371    27A     -0.429069  \n      28A     -0.412523    29A     -0.368105    30A     -0.326548  \n      31A     -0.308128    32A     -0.295175    33A     -0.279713  \n      34A     -0.263693    35A     -0.235886  \n\n    Virtual:                                                              \n\n      36A     -0.039686    37A     -0.012334    38A      0.010637  \n      39A      0.018769    40A      0.028199    41A      0.048706  \n      42A      0.054486    43A      0.064207    44A      0.087156  \n      45A      0.109798    46A      0.121183    47A      0.125044  \n      48A      0.131595    49A      0.147899    50A      0.150940  \n      51A      0.159301    52A      0.168978    53A      0.174314  \n      54A      0.186293    55A      0.190226    56A      0.205936  \n      57A      0.215102    58A      0.218904    59A      0.235389  \n      60A      0.246455    61A      0.250993    62A      0.259989  \n      63A      0.274078    64A      0.277416    65A      0.279344  \n      66A      0.286541    67A      0.291678    68A      0.296953  \n      69A      0.299880    70A      0.304254    71A      0.316712  \n      72A      0.319570    73A      0.331386    74A      0.343509  \n      75A      0.349972    76A      0.358156    77A      0.358686  \n      78A      0.359591    79A      0.367424    80A      0.371724  \n      81A      0.375987    82A      0.383175    83A      0.391828  \n      84A      0.412792    85A      0.416144    86A      0.425591  \n      87A      0.427056    88A      0.440063    89A      0.446822  \n      90A      0.456066    91A      0.465797    92A      0.470507  \n      93A      0.486107    94A      0.492950    95A      0.500129  \n      96A      0.517901    97A      0.536081    98A      0.548782  \n      99A      0.555881   100A      0.563220   101A      0.572291  \n     102A      0.592724   103A      0.598165   104A      0.601022  \n     105A      0.612934   106A      0.616497   107A      0.631104  \n     108A      0.637218   109A      0.639945   110A      0.649098  \n     111A      0.656527   112A      0.671130   113A      0.681444  \n     114A      0.689538   115A      0.699524   116A      0.714997  \n     117A      0.722688   118A      0.732182   119A      0.740044  \n     120A      0.741234   121A      0.750840   122A      0.765560  \n     123A      0.771328   124A      0.787970   125A      0.803211  \n     126A      0.813600   127A      0.829699   128A      0.833685  \n     129A      0.847026   130A      0.862634   131A      0.876865  \n     132A      0.899022   133A      0.915690   134A      0.920770  \n     135A      0.966956   136A      0.984294   137A      0.997523  \n     138A      1.010420   139A      1.034926   140A      1.040484  \n     141A      1.071582   142A      1.088687   143A      1.106409  \n     144A      1.121113   145A      1.139996   146A      1.152972  \n     147A      1.172617   148A      1.178795   149A      1.184090  \n     150A      1.197332   151A      1.207462   152A      1.230653  \n     153A      1.238251   154A      1.250161   155A      1.275214  \n     156A      1.278496   157A      1.292094   158A      1.342184  \n     159A      1.385670   160A      1.427367   161A      1.451977  \n     162A      1.501577   163A      1.527077   164A      1.546887  \n     165A      1.550996   166A      1.575053   167A      1.580670  \n     168A      1.585055   169A      1.607329   170A      1.635149  \n     171A      1.681857   172A      1.687924   173A      1.700683  \n     174A      1.711491   175A      1.740493   176A      1.766646  \n     177A      1.772537   178A      1.799697   179A      1.802731  \n     180A      1.811143   181A      1.815363   182A      1.838267  \n     183A      1.863916   184A      1.873623   185A      1.880936  \n     186A      1.898701   187A      1.923857   188A      1.952830  \n     189A      1.962676   190A      1.991022   191A      2.009781  \n     192A      2.043987   193A      2.067649   194A      2.076120  \n     195A      2.083662   196A      2.096387   197A      2.115411  \n     198A      2.124968   199A      2.129126   200A      2.152582  \n     201A      2.184693   202A      2.226770   203A      2.254104  \n     204A      2.290470   205A      2.334822   206A      2.351552  \n     207A      2.375508   208A      2.407903   209A      2.452226  \n     210A      2.488347   211A      2.511029   212A      2.566033  \n     213A      2.574918   214A      2.590391   215A      2.611845  \n     216A      2.638046   217A      2.661025   218A      2.728563  \n     219A      2.766669   220A      2.787744   221A      2.807487  \n     222A      2.839123   223A      2.859157   224A      2.887792  \n     225A      2.930301   226A      2.986776   227A      3.036886  \n     228A      3.095542   229A      3.128894   230A      3.146190  \n     231A      3.221911   232A      3.255716   233A      3.263477  \n     234A      3.312882   235A      3.399859   236A      3.431264  \n     237A      3.457727   238A      3.621373   239A      3.669463  \n     240A      3.722026  \n\n    Final Occupation by Irrep:\n              A \n    DOCC [    35 ]\n\n  @DF-RKS Final Energy:  -467.04383873726033\n\n   => Energetics <=\n\n    Nuclear Repulsion Energy =            501.2235939031376120\n    One-Electron Energy =               -1625.6451319785285250\n    Two-Electron Energy =                 708.7737538548556131\n    DFT Exchange-Correlation Energy =     -51.3684664667252093\n    Empirical Dispersion Energy =          -0.0275880500000000\n    VV10 Nonlocal Energy =                  0.0000000000000000\n    Total Energy =                       -467.0438387372603870\n\nComputation Completed\n\n\nProperties will be evaluated at   0.000000,   0.000000,   0.000000 [a0]\n\nProperties computed using the SCF density matrix\n\n  Nuclear Dipole Moment: [e a0]\n     X:    -0.8453      Y:    -1.3883      Z:    -0.6829\n\n  Electronic Dipole Moment: [e a0]\n     X:     1.4462      Y:     0.6431      Z:     0.3247\n\n  Dipole Moment: [e a0]\n     X:     0.6009      Y:    -0.7452      Z:    -0.3581     Total:     1.0221\n\n  Dipole Moment: [D]\n     X:     1.5272      Y:    -1.8942      Z:    -0.9103     Total:     2.5979\n\n\n*** tstop() called on bignimbus at Mon May 17 03:28:35 2021\nModule time:\n\tuser time   =     146.73 seconds =       2.45 minutes\n\tsystem time =       5.51 seconds =       0.09 minutes\n\ttotal time  =          8 seconds =       0.13 minutes\nTotal time:\n\tuser time   =     146.73 seconds =       2.45 minutes\n\tsystem time =       5.51 seconds =       0.09 minutes\n\ttotal time  =          8 seconds =       0.13 minutes\n\n    Psi4 stopped on: Monday, 17 May 2021 03:28AM\n    Psi4 wall time for execution: 0:00:08.03\n\n*** Psi4 exiting successfully. Buy a developer a beer!\n",
 "stderr": null,
 "success": true,
 "error": null,
 "tag": "b3lyp-d3bj def2-svpd c3a_a"
}