{
 "id": null,
 "schema_name": "qcschema_output",
 "schema_version": 1,
 "molecule": {
  "validated": true,
  "symbols": [
   "C",
   "C",
   "C",
   "C",
   "N",
   "N",
   "N",
   "O",
   "H",
   "H",
   "H",
   "H",
   "H",
   "C",
   "C",
   "C",
   "C",
   "C",
   "N",
   "N",
   "N",
   "N",
   "N",
   "O",
   "H",
   "H",
   "H",
   "H",
   "H"
  ],
  "geometry": [
   -3.711901804594667,
   -4.713979593399892,
   0.0,
   -8.251613552495511,
   -4.633649225532806,
   0.0,
   -8.270866082261676,
   -2.1077260129522197,
   0.0,
   -5.830417072061675,
   -0.8772346258126067,
   0.0,
   -6.041312397388894,
   -5.919246916216895,
   0.0,
   -3.7056619289284054,
   -2.164417796715955,
   0.0,
   -5.705508064895037,
   1.6193694859315009,
   0.0,
   -1.821878992135142,
   -5.999913655334313,
   0.0,
   -5.9954714210375375,
   -7.7980182993254425,
   0.0,
   -9.946229234952071,
   -5.749840527974103,
   0.0,
   -9.995906355338105,
   -1.0477956367180536,
   0.0,
   -7.266979313730213,
   2.6542723293601043,
   0.0,
   -4.014023658628362,
   2.492859482627998,
   0.0,
   1.328885943280326,
   2.9539828928577156,
   0.0,
   3.6271406214441297,
   -1.0726323071849462,
   0.0,
   5.837402092302113,
   2.4545944183136026,
   0.0,
   3.7915203381932043,
   4.0509197758067215,
   0.0,
   6.978084245329344,
   6.432080518546612,
   0.0,
   1.4671042915485621,
   0.32238619534152807,
   0.0,
   5.883392357017381,
   -0.08610456284193779,
   0.0,
   4.568947997028178,
   6.542540679757997,
   0.0,
   7.8815793134458625,
   3.9914123001160564,
   0.0,
   3.342048979253059,
   -3.580778866103349,
   0.0,
   -0.716272045722534,
   3.9795448200481816,
   0.0,
   -0.20976686258994692,
   -0.5800411775141048,
   0.0,
   8.233476553624119,
   8.019820850251776,
   0.0,
   9.671340816593098,
   3.4300143524911695,
   0.0,
   4.903745105497165,
   -4.614990069770037,
   0.0,
   1.6481022598449129,
   -4.421809037142858,
   0.0
  ],
  "name": "C9H10N8O2",
  "molecular_charge": 0.0,
  "molecular_multiplicity": 1,
  "masses": [
   12.0,
   12.0,
   12.0,
   12.0,
   14.00307400443,
   14.00307400443,
   14.00307400443,
   15.99491461957,
   1.00782503223,
   1.00782503223,
   1.00782503223,
   1.00782503223,
   1.00782503223,
   12.0,
   12.0,
   12.0,
   12.0,
   12.0,
   14.00307400443,
   14.00307400443,
   14.00307400443,
   14.00307400443,
   14.00307400443,
   15.99491461957,
   1.00782503223,
   1.00782503223,
   1.00782503223,
   1.00782503223,
   1.00782503223
  ],
  "real": [
   true,
   true,
   true,
   true,
   true,
   true,
   true,
   true,
   true,
   true,
   true,
   true,
   true,
   true,
   true,
   true,
   true,
   true,
   true,
   true,
   true,
   true,
   true,
   true,
   true,
   true,
   true,
   true,
   true
  ],
  "atom_labels": [
   "",
   "",
   "",
   "",
   "",
   "",
   "",
   "",
   "",
   "",
   "",
   "",
   "",
   "",
   "",
   "",
   "",
   "",
   "",
   "",
   "",
   "",
   "",
   "",
   "",
   "",
   "",
   "",
   ""
  ],
  "atomic_numbers": [
   6,
   6,
   6,
   6,
   7,
   7,
   7,
   8,
   1,
   1,
   1,
   1,
   1,
   6,
   6,
   6,
   6,
   6,
   7,
   7,
   7,
   7,
   7,
   8,
   1,
   1,
   1,
   1,
   1
  ],
  "mass_numbers": [
   12,
   12,
   12,
   12,
   14,
   14,
   14,
   16,
   1,
   1,
   1,
   1,
   1,
   12,
   12,
   12,
   12,
   12,
   14,
   14,
   14,
   14,
   14,
   16,
   1,
   1,
   1,
   1,
   1
  ],
  "fragments": [
   [
    0,
    1,
    2,
    3,
    4,
    5,
    6,
    7,
    8,
    9,
    10,
    11,
    12,
    13,
    14,
    15,
    16,
    17,
    18,
    19,
    20,
    21,
    22,
    23,
    24,
    25,
    26,
    27,
    28
   ]
  ],
  "fragment_charges": [
   0.0
  ],
  "fragment_multiplicities": [
   1
  ],
  "fix_com": false,
  "fix_orientation": false,
  "provenance": {
   "creator": "QCElemental",
   "version": "v0.19.0",
   "routine": "qcelemental.molparse.from_string"
  }
 },
 "driver": "energy",
 "model": {
  "method": "dsd-blyp-d3bj",
  "basis": "pcseg-1"
 },
 "keywords": {},
 "protocols": {},
 "extras": {
  "qcvars": {
   "2-BODY DISPERSION CORRECTION ENERGY": -0.03249609,
   "CURRENT DIPOLE X": -4.738453527243985,
   "CURRENT DIPOLE Y": -4.338192862069268,
   "CURRENT DIPOLE Z": 0.0,
   "CURRENT ENERGY": -935.989997948772,
   "CURRENT REFERENCE ENERGY": -934.5361793048577,
   "DFT FUNCTIONAL TOTAL ENERGY": -934.5036832148577,
   "DFT TOTAL ENERGY": -935.989997948772,
   "DFT VV10 ENERGY": 0.0,
   "DFT XC ENERGY": -37.48749557359965,
   "DISPERSION CORRECTION ENERGY": -0.03249609,
   "DOUBLE-HYBRID CORRECTION ENERGY": -1.4538186439143832,
   "DSD-BLYP-D3BJ DISPERSION CORRECTION ENERGY": -0.03249609,
   "DSD-BLYP-D3BJ DOUBLE-HYBRID CORRECTION ENERGY": -1.4538186439143832,
   "DSD-BLYP-D3BJ TOTAL ENERGY": -935.989997948772,
   "NUCLEAR REPULSION ENERGY": 1391.9768784958428,
   "ONE-ELECTRON ENERGY": -4038.250910380111,
   "PCM POLARIZATION ENERGY": 0.0,
   "PE ENERGY": 0.0,
   "SCF DIPOLE X": -4.738453527243985,
   "SCF DIPOLE Y": -4.338192862069268,
   "SCF DIPOLE Z": 0.0,
   "SCF ITERATION ENERGY": -934.5361793048577,
   "SCF ITERATIONS": 9.0,
   "SCF TOTAL ENERGY": -934.5361793048577,
   "TWO-ELECTRON ENERGY": 1749.25784424301,
   "XC GRID RADIAL POINTS": 75.0,
   "XC GRID SPHERICAL POINTS": 302.0,
   "XC GRID TOTAL POINTS": 599342.0,
   "CURRENT DIPOLE": [
    -1.8642510639529686,
    -1.706776401255476,
    0.0
   ],
   "SCF DIPOLE": [
    -1.8642510639529686,
    -1.706776401255476,
    0.0
   ]
  }
 },
 "provenance": {
  "creator": "Psi4",
  "version": "1.4a2.dev923",
  "routine": "psi4.schema_runner.run_qcschema",
  "memory": 100.0,
  "username": "ubuntu",
  "hostname": "bignimbus",
  "cpu": "AMD EPYC Processor (with IBPB)",
  "wall_time": 24.311792850494385,
  "qcengine_version": "v0.17.0",
  "nthreads": 16
 },
 "properties": {
  "calcinfo_nbasis": 316,
  "calcinfo_nmo": 316,
  "calcinfo_nalpha": 68,
  "calcinfo_nbeta": 68,
  "calcinfo_natom": 29,
  "nuclear_repulsion_energy": 1391.9768784958428,
  "return_energy": -935.989997948772,
  "scf_one_electron_energy": -4038.250910380111,
  "scf_two_electron_energy": 1749.25784424301,
  "scf_xc_energy": -37.48749557359965,
  "scf_dispersion_correction_energy": -0.03249609,
  "scf_dipole_moment": [
   -1.8642510639529686,
   -1.706776401255476,
   0.0
  ],
  "scf_total_energy": -934.5361793048577,
  "scf_iterations": 9
 },
 "wavefunction": null,
 "return_result": -935.989997948772,
 "stdout": "\n    -----------------------------------------------------------------------\n          Psi4: An Open-Source Ab Initio Electronic Structure Package\n                               Psi4 1.4a2.dev923 \n\n                         Git: Rev {master} 5de566e \n\n\n    D. G. A. Smith, L. A. Burns, A. C. Simmonett, R. M. Parrish,\n    M. C. Schieber, R. Galvelis, P. Kraus, H. Kruse, R. Di Remigio,\n    A. Alenaizan, A. M. James, S. Lehtola, J. P. Misiewicz, M. Scheurer,\n    R. A. Shaw, J. B. Schriber, Y. Xie, Z. L. Glick, D. A. Sirianni,\n    J. S. O'Brien, J. M. Waldrop, A. Kumar, E. G. Hohenstein,\n    B. P. Pritchard, B. R. Brooks, H. F. Schaefer III, A. Yu. Sokolov,\n    K. Patkowski, A. E. DePrince III, U. Bozkaya, R. A. King,\n    F. A. Evangelista, J. M. Turney, T. D. Crawford, C. D. Sherrill,\n    J. Chem. Phys. 152(18) 184108 (2020). https://doi.org/10.1063/5.0006002\n\n                            Additional Code Authors\n    E. T. Seidl, C. L. Janssen, E. F. Valeev, M. L. Leininger,\n    J. F. Gonthier, R. M. Richard, H. R. McAlexander, M. Saitow, X. Wang,\n    P. Verma, and M. H. Lechner\n\n             Previous Authors, Complete List of Code Contributors,\n                       and Citations for Specific Modules\n    https://github.com/psi4/psi4/blob/master/codemeta.json\n    https://github.com/psi4/psi4/graphs/contributors\n    http://psicode.org/psi4manual/master/introduction.html#citing-psifour\n\n    -----------------------------------------------------------------------\n\n\n    Psi4 started on: Wednesday, 12 May 2021 04:40PM\n\n    Process ID: 2164454\n    Host:       bignimbus\n    PSIDATADIR: /home/ubuntu/pk/Applications/miniconda3/envs/psi4-1.4a2.dev923/share/psi4\n    Memory:     93.1 GiB\n    Threads:    16\n    \n  ==> Input QCSchema <==\n\n--------------------------------------------------------------------------\n{'driver': 'energy',\n 'extras': {},\n 'id': None,\n 'keywords': {},\n 'model': {'basis': 'pcseg-1', 'method': 'dsd-blyp-d3bj'},\n 'molecule': {'atom_labels': ['', '', '', '', '', '', '', '', '', '', '', '', '', '', '', '', '', '', '', '', '', '',\n                              '', '', '', '', '', '', ''],\n              'atomic_numbers': [6, 6, 6, 6, 7, 7, 7, 8, 1, 1, 1, 1, 1, 6, 6, 6, 6, 6, 7, 7, 7, 7, 7, 8, 1, 1, 1, 1, 1],\n              'fix_com': False,\n              'fix_orientation': False,\n              'fragment_charges': [0.0],\n              'fragment_multiplicities': [1],\n              'fragments': [[0, 1, 2, 3, 4, 5, 6, 7, 8, 9, 10, 11, 12, 13, 14, 15, 16, 17, 18, 19, 20, 21, 22, 23, 24,\n                             25, 26, 27, 28]],\n              'geometry': [-3.711901804594666, -4.713979593399892, 0.0, -8.251613552495511, -4.633649225532806, 0.0,\n                           -8.270866082261676, -2.10772601295222, 0.0, -5.830417072061674, -0.877234625812607, 0.0,\n                           -6.041312397388893, -5.919246916216895, 0.0, -3.7056619289284045, -2.1644177967159552, 0.0,\n                           -5.705508064895036, 1.6193694859315007, 0.0, -1.821878992135141, -5.999913655334313, 0.0,\n                           -5.995471421037537, -7.7980182993254425, 0.0, -9.946229234952071, -5.749840527974103, 0.0,\n                           -9.995906355338105, -1.0477956367180539, 0.0, -7.2669793137302126, 2.654272329360104, 0.0,\n                           -4.0140236586283615, 2.4928594826279977, 0.0, 1.3288859432803268, 2.953982892857715, 0.0,\n                           3.6271406214441306, -1.0726323071849464, 0.0, 5.8374020923021135, 2.454594418313602, 0.0,\n                           3.791520338193205, 4.0509197758067215, 0.0, 6.978084245329345, 6.432080518546612, 0.0,\n                           1.467104291548563, 0.32238619534152774, 0.0, 5.883392357017382, -0.08610456284193811, 0.0,\n                           4.568947997028179, 6.542540679757997, 0.0, 7.881579313445863, 3.991412300116056, 0.0,\n                           3.34204897925306, -3.5807788661033495, 0.0, -0.7162720457225332, 3.979544820048181, 0.0,\n                           -0.2097668625899461, -0.5800411775141051, 0.0, 8.233476553624119, 8.019820850251776, 0.0,\n                           9.671340816593098, 3.430014352491169, 0.0, 4.9037451054971655, -4.614990069770037, 0.0,\n                           1.6481022598449138, -4.421809037142858, 0.0],\n              'mass_numbers': [12, 12, 12, 12, 14, 14, 14, 16, 1, 1, 1, 1, 1, 12, 12, 12, 12, 12, 14, 14, 14, 14, 14,\n                               16, 1, 1, 1, 1, 1],\n              'masses': [12.0, 12.0, 12.0, 12.0, 14.00307400443, 14.00307400443, 14.00307400443, 15.99491461957,\n                         1.00782503223, 1.00782503223, 1.00782503223, 1.00782503223, 1.00782503223, 12.0, 12.0, 12.0,\n                         12.0, 12.0, 14.00307400443, 14.00307400443, 14.00307400443, 14.00307400443, 14.00307400443,\n                         15.99491461957, 1.00782503223, 1.00782503223, 1.00782503223, 1.00782503223, 1.00782503223],\n              'molecular_charge': 0.0,\n              'molecular_multiplicity': 1,\n              'name': 'C9H10N8O2',\n              'provenance': {'creator': 'QCElemental',\n                             'routine': 'qcelemental.molparse.from_string',\n                             'version': 'v0.19.0'},\n              'real': [True, True, True, True, True, True, True, True, True, True, True, True, True, True, True, True,\n                       True, True, True, True, True, True, True, True, True, True, True, True, True],\n              'symbols': ['C', 'C', 'C', 'C', 'N', 'N', 'N', 'O', 'H', 'H', 'H', 'H', 'H', 'C', 'C', 'C', 'C', 'C', 'N',\n                          'N', 'N', 'N', 'N', 'O', 'H', 'H', 'H', 'H', 'H'],\n              'validated': True},\n 'protocols': {},\n 'provenance': {'creator': 'QCElemental', 'routine': 'qcelemental.models.results', 'version': 'v0.17.0'},\n 'schema_name': 'qcschema_input',\n 'schema_version': 1}\n--------------------------------------------------------------------------\n\nScratch directory: /home/ubuntu/pk/scratch/tmpveojykxn_psi_scratch/\n\n*** tstart() called on bignimbus\n*** at Wed May 12 16:40:34 2021\n\n   => Loading Basis Set <=\n\n    Name: PCSEG-1\n    Role: ORBITAL\n    Keyword: BASIS\n    atoms 1-4, 14-18  entry C          line    90 file /home/ubuntu/pk/Applications/miniconda3/envs/psi4-1.4a2.dev923/share/psi4/basis/pcseg-1.gbs \n    atoms 5-7, 19-23  entry N          line   111 file /home/ubuntu/pk/Applications/miniconda3/envs/psi4-1.4a2.dev923/share/psi4/basis/pcseg-1.gbs \n    atoms 8, 24       entry O          line   132 file /home/ubuntu/pk/Applications/miniconda3/envs/psi4-1.4a2.dev923/share/psi4/basis/pcseg-1.gbs \n    atoms 9-13, 25-29 entry H          line    13 file /home/ubuntu/pk/Applications/miniconda3/envs/psi4-1.4a2.dev923/share/psi4/basis/pcseg-1.gbs \n\n   => DSD-BLYP-D3BJ: Empirical Dispersion <=\n\n    Grimme's -D3 (BJ-damping) Dispersion Correction\n    Grimme S.; Ehrlich S.; Goerigk L. (2011), J. Comput. Chem., 32: 1456\n    Parametrisation from:    S. Kozuch, J.M.L. Martin, J. Comp. Chem., 34, 2327-2344, 2013\n\n        s6 =       0.570000\n        s8 =       0.000000\n        a1 =       0.000000\n        a2 =       5.400000\n\n\n         ---------------------------------------------------------\n                                   SCF\n               by Justin Turney, Rob Parrish, Andy Simmonett\n                          and Daniel G. A. Smith\n                              RKS Reference\n                       16 Threads,  95367 MiB Core\n         ---------------------------------------------------------\n\n  ==> Geometry <==\n\n    Molecular point group: cs\n    Full point group: Cs\n\n    Geometry (in Bohr), charge = 0, multiplicity = 1:\n\n       Center              X                  Y                   Z               Mass       \n    ------------   -----------------  -----------------  -----------------  -----------------\n         C           -3.711901804595    -4.713979593400     0.000000000000    12.000000000000\n         C           -8.251613552496    -4.633649225533     0.000000000000    12.000000000000\n         C           -8.270866082262    -2.107726012952     0.000000000000    12.000000000000\n         C           -5.830417072062    -0.877234625813     0.000000000000    12.000000000000\n         N           -6.041312397389    -5.919246916217     0.000000000000    14.003074004430\n         N           -3.705661928928    -2.164417796716     0.000000000000    14.003074004430\n         N           -5.705508064895     1.619369485932     0.000000000000    14.003074004430\n         O           -1.821878992135    -5.999913655334     0.000000000000    15.994914619570\n         H           -5.995471421038    -7.798018299325     0.000000000000     1.007825032230\n         H           -9.946229234952    -5.749840527974     0.000000000000     1.007825032230\n         H           -9.995906355338    -1.047795636718     0.000000000000     1.007825032230\n         H           -7.266979313730     2.654272329360     0.000000000000     1.007825032230\n         H           -4.014023658628     2.492859482628     0.000000000000     1.007825032230\n         C            1.328885943280     2.953982892858     0.000000000000    12.000000000000\n         C            3.627140621444    -1.072632307185     0.000000000000    12.000000000000\n         C            5.837402092302     2.454594418314     0.000000000000    12.000000000000\n         C            3.791520338193     4.050919775807     0.000000000000    12.000000000000\n         C            6.978084245329     6.432080518547     0.000000000000    12.000000000000\n         N            1.467104291549     0.322386195342     0.000000000000    14.003074004430\n         N            5.883392357017    -0.086104562842     0.000000000000    14.003074004430\n         N            4.568947997028     6.542540679758     0.000000000000    14.003074004430\n         N            7.881579313446     3.991412300116     0.000000000000    14.003074004430\n         N            3.342048979253    -3.580778866103     0.000000000000    14.003074004430\n         O           -0.716272045723     3.979544820048     0.000000000000    15.994914619570\n         H           -0.209766862590    -0.580041177514     0.000000000000     1.007825032230\n         H            8.233476553624     8.019820850252     0.000000000000     1.007825032230\n         H            9.671340816593     3.430014352491     0.000000000000     1.007825032230\n         H            4.903745105497    -4.614990069770     0.000000000000     1.007825032230\n         H            1.648102259845    -4.421809037143     0.000000000000     1.007825032230\n\n  Running in cs symmetry.\n\n  Rotational constants: A =      0.03012  B =      0.00652  C =      0.00536 [cm^-1]\n  Rotational constants: A =    902.90855  B =    195.51287  C =    160.71267 [MHz]\n  Nuclear repulsion = 1391.976878495842811\n\n  Charge       = 0\n  Multiplicity = 1\n  Electrons    = 136\n  Nalpha       = 68\n  Nbeta        = 68\n\n  ==> Algorithm <==\n\n  SCF Algorithm Type is DF.\n  DIIS enabled.\n  MOM disabled.\n  Fractional occupation disabled.\n  Guess Type is SAD.\n  Energy threshold   = 1.00e-06\n  Density threshold  = 1.00e-06\n  Integral threshold = 0.00e+00\n\n  ==> Primary Basis <==\n\n  Basis Set: PCSEG-1\n    Blend: PCSEG-1\n    Number of shells: 144\n    Number of basis function: 316\n    Number of Cartesian functions: 335\n    Spherical Harmonics?: true\n    Max angular momentum: 2\n\n  ==> DFT Potential <==\n\n   => Composite Functional: DSD-BLYP-D3BJ <= \n\n    DSD-BLYP-D3BJ Dispersion-corrected SCS Double Hybrid XC Functional\n\n    S. Kozuch, J.M.L. Martin, J. Comp. Chem., 34, 2327-2344, 2013\n\n\n    Deriv               =              1\n    GGA                 =           TRUE\n    Meta                =          FALSE\n\n    Exchange Hybrid     =           TRUE\n    MP2 Hybrid          =           TRUE\n\n   => Exchange Functionals <=\n\n    0.2900     XC_GGA_X_B88\n\n   => Exact (HF) Exchange <=\n\n    0.7100               HF \n\n   => Correlation Functionals <=\n\n    0.5400     XC_GGA_C_LYP\n\n   => MP2 Correlation <=\n\n    MP2 SCS Hybrid      =           TRUE\n    MP2 OS Alpha        =       0.470000\n    MP2 SS Alpha        =       0.400000\n\n   => LibXC Density Thresholds  <==\n\n    XC_GGA_C_LYP:  1.00E-32 \n    XC_GGA_X_B88:  1.00E-25 \n\n   => Molecular Quadrature <=\n\n    Radial Scheme          =       TREUTLER\n    Pruning Scheme         =           NONE\n    Nuclear Scheme         =       TREUTLER\n\n    BS radius alpha        =              1\n    Pruning alpha          =              1\n    Radial Points          =             75\n    Spherical Points       =            302\n    Total Points           =         599342\n    Total Blocks           =           4421\n    Max Points             =            256\n    Max Functions          =            229\n    Weights Tolerance      =       1.00E-15\n\n   => Loading Basis Set <=\n\n    Name: (PCSEG-1 AUX)\n    Role: JKFIT\n    Keyword: DF_BASIS_SCF\n    atoms 1-4, 14-18  entry C          line   198 file /home/ubuntu/pk/Applications/miniconda3/envs/psi4-1.4a2.dev923/share/psi4/basis/def2-universal-jkfit.gbs \n    atoms 5-7, 19-23  entry N          line   258 file /home/ubuntu/pk/Applications/miniconda3/envs/psi4-1.4a2.dev923/share/psi4/basis/def2-universal-jkfit.gbs \n    atoms 8, 24       entry O          line   318 file /home/ubuntu/pk/Applications/miniconda3/envs/psi4-1.4a2.dev923/share/psi4/basis/def2-universal-jkfit.gbs \n    atoms 9-13, 25-29 entry H          line    18 file /home/ubuntu/pk/Applications/miniconda3/envs/psi4-1.4a2.dev923/share/psi4/basis/def2-universal-jkfit.gbs \n\n  ==> Integral Setup <==\n\n  DFHelper Memory: AOs need 0.904 GiB; user supplied 67.327 GiB. Using in-core AOs.\n\n  ==> MemDFJK: Density-Fitted J/K Matrices <==\n\n    J tasked:                   Yes\n    K tasked:                   Yes\n    wK tasked:                   No\n    OpenMP threads:              16\n    Memory [MiB]:             68943\n    Algorithm:                 Core\n    Schwarz Cutoff:           1E-12\n    Mask sparsity (%):      29.5325\n    Fitting Condition:        1E-10\n\n   => Auxiliary Basis Set <=\n\n  Basis Set: (PCSEG-1 AUX)\n    Blend: DEF2-UNIVERSAL-JKFIT\n    Number of shells: 535\n    Number of basis function: 1625\n    Number of Cartesian functions: 1931\n    Spherical Harmonics?: true\n    Max angular momentum: 4\n\n  Cached 100.0% of DFT collocation blocks in 2.522 [GiB].\n\n  Minimum eigenvalue in the overlap matrix is 8.5746633077E-04.\n  Reciprocal condition number of the overlap matrix is 1.3883380781E-04.\n    Using symmetric orthogonalization.\n\n  ==> Pre-Iterations <==\n\n  SCF Guess: Superposition of Atomic Densities via on-the-fly atomic UHF (no occupation information).\n\n   -------------------------\n    Irrep   Nso     Nmo    \n   -------------------------\n     A'       230     230 \n     A\"        86      86 \n   -------------------------\n    Total     316     316\n   -------------------------\n\n  ==> Iterations <==\n\n                           Total Energy        Delta E     RMS |[F,P]|\n\n   @DF-RKS iter SAD:  -934.75758176368345   -9.34758e+02   0.00000e+00 \n   @DF-RKS iter   1:  -933.99196152441129    7.65620e-01   4.45004e-03 DIIS\n   @DF-RKS iter   2:  -934.27863566618953   -2.86674e-01   3.31717e-03 DIIS\n   @DF-RKS iter   3:  -934.52696093677162   -2.48325e-01   5.74368e-04 DIIS\n   @DF-RKS iter   4:  -934.53474587269818   -7.78494e-03   2.18170e-04 DIIS\n   @DF-RKS iter   5:  -934.53609430936444   -1.34844e-03   4.19933e-05 DIIS\n   @DF-RKS iter   6:  -934.53616238771497   -6.80784e-05   1.60887e-05 DIIS\n   @DF-RKS iter   7:  -934.53617665507579   -1.42674e-05   6.32595e-06 DIIS\n   @DF-RKS iter   8:  -934.53617895960031   -2.30452e-06   2.53763e-06 DIIS\n   @DF-RKS iter   9:  -934.53617930485768   -3.45257e-07   7.66115e-07 DIIS\n  Energy and wave function converged.\n\n\n  ==> Post-Iterations <==\n\n    Orbital Energies [Eh]\n    ---------------------\n\n    Doubly Occupied:                                                      \n\n       1Ap   -20.004502     2Ap   -19.989549     3Ap   -15.183835  \n       4Ap   -15.157770     5Ap   -15.141499     6Ap   -15.140302  \n       7Ap   -15.115552     8Ap   -15.104286     9Ap   -15.088222  \n      10Ap   -15.083764    11Ap   -11.004805    12Ap   -10.979748  \n      13Ap   -10.979040    14Ap   -10.963685    15Ap   -10.954667  \n      16Ap   -10.919099    17Ap   -10.906724    18Ap   -10.879543  \n      19Ap   -10.843933    20Ap    -1.307936    21Ap    -1.278600  \n      22Ap    -1.247945    23Ap    -1.217516    24Ap    -1.215804  \n      25Ap    -1.181906    26Ap    -1.104224    27Ap    -1.099492  \n      28Ap    -1.094578    29Ap    -1.068483    30Ap    -0.996147  \n      31Ap    -0.933718    32Ap    -0.846639    33Ap    -0.829999  \n      34Ap    -0.820344    35Ap    -0.799492    36Ap    -0.759991  \n      37Ap    -0.727733    38Ap    -0.726228    39Ap    -0.719076  \n      40Ap    -0.681730    41Ap    -0.667664    42Ap    -0.660666  \n      43Ap    -0.637931    44Ap    -0.626090    45Ap    -0.603082  \n       1App   -0.598169    46Ap    -0.590430     2App   -0.588169  \n      47Ap    -0.578557    48Ap    -0.563007    49Ap    -0.557077  \n      50Ap    -0.543066    51Ap    -0.539281     3App   -0.533023  \n       4App   -0.505757     5App   -0.489528     6App   -0.470380  \n      52Ap    -0.421943    53Ap    -0.408742    54Ap    -0.396778  \n       7App   -0.388715    55Ap    -0.373890     8App   -0.365342  \n      56Ap    -0.359857     9App   -0.354989    10App   -0.351101  \n      11App   -0.332701    12App   -0.258056  \n\n    Virtual:                                                              \n\n      13App    0.033897    57Ap     0.082373    14App    0.097412  \n      15App    0.102094    58Ap     0.110617    16App    0.112768  \n      59Ap     0.122334    60Ap     0.136909    61Ap     0.150721  \n      17App    0.162705    62Ap     0.166102    63Ap     0.174805  \n      64Ap     0.232459    65Ap     0.242783    18App    0.243594  \n      66Ap     0.270954    67Ap     0.281817    68Ap     0.301772  \n      69Ap     0.306088    19App    0.308083    70Ap     0.314340  \n      71Ap     0.343074    72Ap     0.353785    73Ap     0.363102  \n      74Ap     0.367997    75Ap     0.385325    76Ap     0.400840  \n      77Ap     0.407046    78Ap     0.418725    79Ap     0.426504  \n      80Ap     0.434683    81Ap     0.461522    82Ap     0.471711  \n      83Ap     0.477014    20App    0.481223    84Ap     0.495816  \n      21App    0.509388    85Ap     0.527937    86Ap     0.532757  \n      87Ap     0.545624    22App    0.560199    88Ap     0.563062  \n      23App    0.564157    89Ap     0.570476    24App    0.590510  \n      90Ap     0.606936    91Ap     0.610439    25App    0.619541  \n      92Ap     0.622505    93Ap     0.632456    94Ap     0.640826  \n      26App    0.654577    95Ap     0.660420    27App    0.660678  \n      96Ap     0.676439    97Ap     0.679923    98Ap     0.685867  \n      99Ap     0.705554   100Ap     0.724377    28App    0.732190  \n     101Ap     0.738228   102Ap     0.741918   103Ap     0.763570  \n     104Ap     0.794078   105Ap     0.797720   106Ap     0.809363  \n     107Ap     0.826247    29App    0.835203   108Ap     0.837271  \n      30App    0.844387    31App    0.857170   109Ap     0.857588  \n     110Ap     0.873834   111Ap     0.874784   112Ap     0.877379  \n     113Ap     0.892781    32App    0.898670   114Ap     0.906535  \n      33App    0.918576   115Ap     0.929533   116Ap     0.940701  \n     117Ap     0.963491    34App    0.973456   118Ap     0.984506  \n     119Ap     0.989646   120Ap     1.003262    35App    1.009207  \n     121Ap     1.024989   122Ap     1.048896   123Ap     1.061654  \n      36App    1.070722   124Ap     1.075689   125Ap     1.104553  \n     126Ap     1.130148    37App    1.140688   127Ap     1.148128  \n     128Ap     1.156570    38App    1.174914   129Ap     1.183326  \n     130Ap     1.236587   131Ap     1.251259   132Ap     1.269485  \n     133Ap     1.292021   134Ap     1.312945   135Ap     1.335679  \n     136Ap     1.350096   137Ap     1.368285    39App    1.380931  \n      40App    1.389119   138Ap     1.401020   139Ap     1.416000  \n      41App    1.423030   140Ap     1.434597   141Ap     1.443414  \n     142Ap     1.456261    42App    1.489917    43App    1.508856  \n     143Ap     1.513553    44App    1.516785    45App    1.536280  \n     144Ap     1.548625    46App    1.566174    47App    1.568809  \n      48App    1.589533    49App    1.606830   145Ap     1.614689  \n      50App    1.620204   146Ap     1.632637    51App    1.636494  \n     147Ap     1.644417    52App    1.661642    53App    1.681065  \n      54App    1.696222   148Ap     1.703310   149Ap     1.731204  \n     150Ap     1.769016   151Ap     1.842895   152Ap     1.872723  \n     153Ap     1.885329   154Ap     1.926303   155Ap     1.963993  \n     156Ap     1.996196   157Ap     2.012953    55App    2.013579  \n     158Ap     2.026919   159Ap     2.037783    56App    2.054165  \n     160Ap     2.061607   161Ap     2.076152    57App    2.077769  \n     162Ap     2.104618    58App    2.107098   163Ap     2.117162  \n     164Ap     2.131673   165Ap     2.151878    59App    2.157616  \n     166Ap     2.160630   167Ap     2.185154   168Ap     2.195560  \n     169Ap     2.209590   170Ap     2.229858    60App    2.230249  \n     171Ap     2.249726    61App    2.258910   172Ap     2.262277  \n     173Ap     2.270210   174Ap     2.296973   175Ap     2.331730  \n      62App    2.337356   176Ap     2.355766    63App    2.364198  \n      64App    2.373400   177Ap     2.384909    65App    2.393767  \n     178Ap     2.398107   179Ap     2.419169    66App    2.434660  \n      67App    2.439875   180Ap     2.457984   181Ap     2.468198  \n     182Ap     2.484855   183Ap     2.502354   184Ap     2.527142  \n      68App    2.530256    69App    2.537514   185Ap     2.546578  \n      70App    2.570158   186Ap     2.575336    71App    2.575378  \n     187Ap     2.600257   188Ap     2.641016    72App    2.641850  \n      73App    2.650666   189Ap     2.661483   190Ap     2.669853  \n      74App    2.690181   191Ap     2.693733   192Ap     2.715101  \n     193Ap     2.739142    75App    2.740990   194Ap     2.752802  \n     195Ap     2.777611    76App    2.792461   196Ap     2.805450  \n     197Ap     2.820223    77App    2.825659    78App    2.850397  \n     198Ap     2.875199    79App    2.879206   199Ap     2.894496  \n      80App    2.897210    81App    2.905842   200Ap     2.911115  \n     201Ap     2.954132   202Ap     2.973424    82App    2.980767  \n     203Ap     3.014858    83App    3.021406   204Ap     3.042357  \n     205Ap     3.058336    84App    3.082619   206Ap     3.108761  \n      85App    3.134276    86App    3.174180   207Ap     3.198770  \n     208Ap     3.211068   209Ap     3.219467   210Ap     3.249656  \n     211Ap     3.255721   212Ap     3.280048   213Ap     3.322177  \n     214Ap     3.368942   215Ap     3.382867   216Ap     3.401012  \n     217Ap     3.475284   218Ap     3.527307   219Ap     3.533034  \n     220Ap     3.549988   221Ap     3.585897   222Ap     3.632864  \n     223Ap     3.663983   224Ap     3.669050   225Ap     3.693316  \n     226Ap     3.909860   227Ap     3.925101   228Ap     3.982210  \n     229Ap     4.005907   230Ap     4.058883  \n\n    Final Occupation by Irrep:\n             Ap   App \n    DOCC [    56,   12 ]\n\n  @DF-RKS Final Energy:  -934.53617930485768\n\n   => Energetics <=\n\n    Nuclear Repulsion Energy =           1391.9768784958428114\n    One-Electron Energy =               -4038.2509103801107813\n    Two-Electron Energy =                1749.2578442430099130\n    DFT Exchange-Correlation Energy =     -37.4874955735996522\n    Empirical Dispersion Energy =          -0.0324960900000000\n    VV10 Nonlocal Energy =                  0.0000000000000000\n    Total Energy =                       -934.5361793048576828\n\nComputation Completed\n\n\nProperties will be evaluated at   0.000000,   0.000000,   0.000000 [a0]\n\nProperties computed using the SCF density matrix\n\n  Nuclear Dipole Moment: [e a0]\n     X:    -6.4534      Y:    -3.7842      Z:     0.0000\n\n  Electronic Dipole Moment: [e a0]\n     X:     4.5891      Y:     2.0774      Z:     0.0000\n\n  Dipole Moment: [e a0]\n     X:    -1.8643      Y:    -1.7068      Z:     0.0000     Total:     2.5276\n\n  Dipole Moment: [D]\n     X:    -4.7385      Y:    -4.3382      Z:     0.0000     Total:     6.4244\n\n\n*** tstop() called on bignimbus at Wed May 12 16:40:49 2021\nModule time:\n\tuser time   =     172.53 seconds =       2.88 minutes\n\tsystem time =       8.85 seconds =       0.15 minutes\n\ttotal time  =         15 seconds =       0.25 minutes\nTotal time:\n\tuser time   =     172.53 seconds =       2.88 minutes\n\tsystem time =       8.85 seconds =       0.15 minutes\n\ttotal time  =         15 seconds =       0.25 minutes\n\n*** tstart() called on bignimbus\n*** at Wed May 12 16:40:49 2021\n\n   => Loading Basis Set <=\n\n    Name: (PCSEG-1 AUX)\n    Role: RIFIT\n    Keyword: DF_BASIS_MP2\n    atoms 1-4, 14-18  entry C          line   153 file /home/ubuntu/pk/Applications/miniconda3/envs/psi4-1.4a2.dev923/share/psi4/basis/def2-svp-ri.gbs \n    atoms 5-7, 19-23  entry N          line   193 file /home/ubuntu/pk/Applications/miniconda3/envs/psi4-1.4a2.dev923/share/psi4/basis/def2-svp-ri.gbs \n    atoms 8, 24       entry O          line   233 file /home/ubuntu/pk/Applications/miniconda3/envs/psi4-1.4a2.dev923/share/psi4/basis/def2-svp-ri.gbs \n    atoms 9-13, 25-29 entry H          line    22 file /home/ubuntu/pk/Applications/miniconda3/envs/psi4-1.4a2.dev923/share/psi4/basis/def2-svp-ri.gbs \n\n\t --------------------------------------------------------\n\t                          DF-MP2                         \n\t      2nd-Order Density-Fitted Moller-Plesset Theory     \n\t              RMP2 Wavefunction,  16 Threads             \n\t                                                         \n\t        Rob Parrish, Justin Turney, Andy Simmonett,      \n\t           Ed Hohenstein, and C. David Sherrill          \n\t --------------------------------------------------------\n\n   => Auxiliary Basis Set <=\n\n  Basis Set: (PCSEG-1 AUX)\n    Blend: DEF2-SVP-RI\n    Number of shells: 364\n    Number of basis function: 1052\n    Number of Cartesian functions: 1195\n    Spherical Harmonics?: true\n    Max angular momentum: 3\n\n\t --------------------------------------------------------\n\t                 NBF =   316, NAUX =  1052\n\t --------------------------------------------------------\n\t   CLASS    FOCC     OCC    AOCC    AVIR     VIR    FVIR\n\t   PAIRS       0      68      68     248     248       0\n\t --------------------------------------------------------\n\n\t-----------------------------------------------------------\n\t ==================> DF-MP2 Energies <==================== \n\t-----------------------------------------------------------\n\t Reference Energy          =    -934.5361793048576828 [Eh]\n\t Singles Energy            =      -0.0000000000000000 [Eh]\n\t Same-Spin Energy          =      -0.8998006452931808 [Eh]\n\t Opposite-Spin Energy      =      -2.3274433740364064 [Eh]\n\t Correlation Energy        =      -3.2272440193295875 [Eh]\n\t Total Energy              =    -937.7634233241872153 [Eh]\n\t-----------------------------------------------------------\n\t ================> DF-SCS-MP2 Energies <================== \n\t-----------------------------------------------------------\n\t SCS Same-Spin Scale       =       0.4000000000000000 [-]\n\t SCS Opposite-Spin Scale   =       0.4700000000000000 [-]\n\t SCS Same-Spin Energy      =      -0.3599202581172724 [Eh]\n\t SCS Opposite-Spin Energy  =      -1.0938983857971110 [Eh]\n\t SCS Correlation Energy    =      -3.0928655972747481 [Eh]\n\t SCS Total Energy          =    -937.6290449021324775 [Eh]\n\t-----------------------------------------------------------\n\n\n\n    DSD-BLYP-D3BJ Energy Summary\n    ----------------------------\n    DFT Reference Energy                  =  -934.5361793048576828\n    Scaled MP2 Correlation                =    -1.4538186439143832\n    @Final double-hybrid DFT total energy =  -935.9899979487720429\n\n\n*** tstop() called on bignimbus at Wed May 12 16:40:54 2021\nModule time:\n\tuser time   =      59.83 seconds =       1.00 minutes\n\tsystem time =       1.24 seconds =       0.02 minutes\n\ttotal time  =          5 seconds =       0.08 minutes\nTotal time:\n\tuser time   =     232.38 seconds =       3.87 minutes\n\tsystem time =      10.10 seconds =       0.17 minutes\n\ttotal time  =         20 seconds =       0.33 minutes\n\n    Psi4 stopped on: Wednesday, 12 May 2021 04:40PM\n    Psi4 wall time for execution: 0:00:19.77\n\n*** Psi4 exiting successfully. Buy a developer a beer!\n",
 "stderr": null,
 "success": true,
 "error": null,
 "tag": "dsd-blyp-d3bj pcseg-1 gcgc_a"
}