{
 "id": null,
 "schema_name": "qcschema_output",
 "schema_version": 1,
 "molecule": {
  "validated": true,
  "symbols": [
   "C",
   "C",
   "C",
   "C",
   "C",
   "N",
   "N",
   "N",
   "N",
   "N",
   "H",
   "H",
   "H",
   "H",
   "H"
  ],
  "geometry": [
   -2.6005148446510584,
   0.05786205884492528,
   -0.05834799091184591,
   -0.1816654040650379,
   -1.05140717679882,
   0.03991776761196013,
   1.8611285375548743,
   0.6342285271095628,
   0.08527119462294801,
   -0.6465380309276636,
   3.967705412417172,
   0.03235886311012896,
   3.108347780357041,
   -3.3625422282337434,
   0.004012971228262096,
   -2.7857080049459246,
   2.5976539714602467,
   -0.05267881253547342,
   1.7553038745292358,
   3.1645718090975947,
   0.09849927750115343,
   0.6309168298818281,
   -3.543955936277695,
   -0.011104837775400235,
   3.9719526196912684,
   -0.9002290867621937,
   0.08716092074840669,
   -4.769920436676645,
   -1.3273071911156629,
   -0.11126032242466495,
   -0.9092099623663019,
   6.004830175660711,
   0.019130780231924428,
   4.406589628546569,
   -4.938573816865572,
   -0.07157607379005133,
   5.787979426256241,
   -0.31630371399572466,
   -0.04700963415909916,
   -6.351621203684847,
   -0.38811330676312217,
   -0.6366041853019416,
   -4.6414190601455125,
   -3.160341532809756,
   -0.6403836375528572
  ],
  "name": "C5H5N5",
  "molecular_charge": 0.0,
  "molecular_multiplicity": 1,
  "masses": [
   12.0,
   12.0,
   12.0,
   12.0,
   12.0,
   14.00307400443,
   14.00307400443,
   14.00307400443,
   14.00307400443,
   14.00307400443,
   1.00782503223,
   1.00782503223,
   1.00782503223,
   1.00782503223,
   1.00782503223
  ],
  "real": [
   true,
   true,
   true,
   true,
   true,
   true,
   true,
   true,
   true,
   true,
   true,
   true,
   true,
   true,
   true
  ],
  "atom_labels": [
   "",
   "",
   "",
   "",
   "",
   "",
   "",
   "",
   "",
   "",
   "",
   "",
   "",
   "",
   ""
  ],
  "atomic_numbers": [
   6,
   6,
   6,
   6,
   6,
   7,
   7,
   7,
   7,
   7,
   1,
   1,
   1,
   1,
   1
  ],
  "mass_numbers": [
   12,
   12,
   12,
   12,
   12,
   14,
   14,
   14,
   14,
   14,
   1,
   1,
   1,
   1,
   1
  ],
  "fragments": [
   [
    0,
    1,
    2,
    3,
    4,
    5,
    6,
    7,
    8,
    9,
    10,
    11,
    12,
    13,
    14
   ]
  ],
  "fragment_charges": [
   0.0
  ],
  "fragment_multiplicities": [
   1
  ],
  "fix_com": false,
  "fix_orientation": false,
  "provenance": {
   "creator": "QCElemental",
   "version": "v0.19.0",
   "routine": "qcelemental.molparse.from_string"
  }
 },
 "driver": "energy",
 "model": {
  "method": "b3lyp-d3bj",
  "basis": "def2-tzvpd"
 },
 "keywords": {
  "guess": "SAP",
  "freeze_core": "true",
  "dft_vv10_postscf": "true"
 },
 "protocols": {},
 "extras": {
  "qcvars": {
   "2-BODY DISPERSION CORRECTION ENERGY": -0.02758805,
   "B3LYP-D3(BJ) DISPERSION CORRECTION ENERGY": -0.02758805,
   "CURRENT DIPOLE X": 1.517762891525002,
   "CURRENT DIPOLE Y": -1.8867051558471668,
   "CURRENT DIPOLE Z": -0.9088567379793066,
   "CURRENT ENERGY": -467.5318082633734,
   "CURRENT REFERENCE ENERGY": -467.5318082633734,
   "DFT FUNCTIONAL TOTAL ENERGY": -467.5042202133734,
   "DFT TOTAL ENERGY": -467.5318082633734,
   "DFT VV10 ENERGY": 0.0,
   "DFT XC ENERGY": -51.49688870190411,
   "DISPERSION CORRECTION ENERGY": -0.02758805,
   "NUCLEAR REPULSION ENERGY": 501.2235939031376,
   "ONE-ELECTRON ENERGY": -1626.7426624951179,
   "PCM POLARIZATION ENERGY": 0.0,
   "PE ENERGY": 0.0,
   "SCF DIPOLE X": 1.517762891525002,
   "SCF DIPOLE Y": -1.8867051558471668,
   "SCF DIPOLE Z": -0.9088567379793066,
   "SCF ITERATION ENERGY": -467.5318082633734,
   "SCF ITERATIONS": 11.0,
   "SCF TOTAL ENERGY": -467.5318082633734,
   "TWO-ELECTRON ENERGY": 709.5117370805109,
   "XC GRID RADIAL POINTS": 75.0,
   "XC GRID SPHERICAL POINTS": 302.0,
   "XC GRID TOTAL POINTS": 317511.0,
   "CURRENT DIPOLE": [
    0.5971338684837812,
    -0.7422869241896703,
    -0.35757175437451627
   ],
   "SCF DIPOLE": [
    0.5971338684837812,
    -0.7422869241896703,
    -0.35757175437451627
   ]
  }
 },
 "provenance": {
  "creator": "Psi4",
  "version": "1.4a2.dev923",
  "routine": "psi4.schema_runner.run_qcschema",
  "username": "ubuntu",
  "qcengine_version": "v0.17.0",
  "wall_time": 21.262325048446655,
  "cpu": "AMD EPYC Processor (with IBPB)",
  "memory": 200.0,
  "hostname": "bignimbus",
  "nthreads": 32
 },
 "properties": {
  "calcinfo_nbasis": 415,
  "calcinfo_nmo": 415,
  "calcinfo_nalpha": 35,
  "calcinfo_nbeta": 35,
  "calcinfo_natom": 15,
  "nuclear_repulsion_energy": 501.2235939031376,
  "return_energy": -467.5318082633734,
  "scf_one_electron_energy": -1626.7426624951179,
  "scf_two_electron_energy": 709.5117370805109,
  "scf_xc_energy": -51.49688870190411,
  "scf_dispersion_correction_energy": -0.02758805,
  "scf_dipole_moment": [
   0.5971338684837812,
   -0.7422869241896703,
   -0.35757175437451627
  ],
  "scf_total_energy": -467.5318082633734,
  "scf_iterations": 11
 },
 "wavefunction": null,
 "return_result": -467.5318082633734,
 "stdout": "\n    -----------------------------------------------------------------------\n          Psi4: An Open-Source Ab Initio Electronic Structure Package\n                               Psi4 1.4a2.dev923 \n\n                         Git: Rev {master} 5de566e \n\n\n    D. G. A. Smith, L. A. Burns, A. C. Simmonett, R. M. Parrish,\n    M. C. Schieber, R. Galvelis, P. Kraus, H. Kruse, R. Di Remigio,\n    A. Alenaizan, A. M. James, S. Lehtola, J. P. Misiewicz, M. Scheurer,\n    R. A. Shaw, J. B. Schriber, Y. Xie, Z. L. Glick, D. A. Sirianni,\n    J. S. O'Brien, J. M. Waldrop, A. Kumar, E. G. Hohenstein,\n    B. P. Pritchard, B. R. Brooks, H. F. Schaefer III, A. Yu. Sokolov,\n    K. Patkowski, A. E. DePrince III, U. Bozkaya, R. A. King,\n    F. A. Evangelista, J. M. Turney, T. D. Crawford, C. D. Sherrill,\n    J. Chem. Phys. 152(18) 184108 (2020). https://doi.org/10.1063/5.0006002\n\n                            Additional Code Authors\n    E. T. Seidl, C. L. Janssen, E. F. Valeev, M. L. Leininger,\n    J. F. Gonthier, R. M. Richard, H. R. McAlexander, M. Saitow, X. Wang,\n    P. Verma, and M. H. Lechner\n\n             Previous Authors, Complete List of Code Contributors,\n                       and Citations for Specific Modules\n    https://github.com/psi4/psi4/blob/master/codemeta.json\n    https://github.com/psi4/psi4/graphs/contributors\n    http://psicode.org/psi4manual/master/introduction.html#citing-psifour\n\n    -----------------------------------------------------------------------\n\n\n    Psi4 started on: Monday, 17 May 2021 03:03PM\n\n    Process ID: 2516524\n    Host:       bignimbus\n    PSIDATADIR: /home/ubuntu/pk/Applications/miniconda3/envs/psi4-1.4a2.dev923/share/psi4\n    Memory:     186.3 GiB\n    Threads:    32\n    \n  ==> Input QCSchema <==\n\n--------------------------------------------------------------------------\n{'driver': 'energy',\n 'extras': {},\n 'id': None,\n 'keywords': {'dft_vv10_postscf': 'true', 'freeze_core': 'true', 'guess': 'SAP'},\n 'model': {'basis': 'def2-tzvpd', 'method': 'b3lyp-d3bj'},\n 'molecule': {'atom_labels': ['', '', '', '', '', '', '', '', '', '', '', '', '', '', ''],\n              'atomic_numbers': [6, 6, 6, 6, 6, 7, 7, 7, 7, 7, 1, 1, 1, 1, 1],\n              'fix_com': False,\n              'fix_orientation': False,\n              'fragment_charges': [0.0],\n              'fragment_multiplicities': [1],\n              'fragments': [[0, 1, 2, 3, 4, 5, 6, 7, 8, 9, 10, 11, 12, 13, 14]],\n              'geometry': [-2.600514844651058, 0.0578620588449254, -0.05834799091184806, -0.1816654040650374,\n                           -1.0514071767988198, 0.03991776761195798, 1.8611285375548747, 0.6342285271095629,\n                           0.08527119462294586, -0.6465380309276632, 3.967705412417172, 0.03235886311012681,\n                           3.1083477803570414, -3.3625422282337434, 0.004012971228259943, -2.785708004945924,\n                           2.5976539714602467, -0.05267881253547557, 1.7553038745292362, 3.1645718090975947,\n                           0.09849927750115128, 0.6309168298818285, -3.543955936277695, -0.011104837775402387,\n                           3.971952619691269, -0.9002290867621936, 0.08716092074840454, -4.769920436676644,\n                           -1.3273071911156626, -0.1112603224246671, -0.9092099623663015, 6.004830175660711,\n                           0.019130780231922273, 4.40658962854657, -4.938573816865572, -0.07157607379005348,\n                           5.787979426256242, -0.31630371399572454, -0.04700963415910131, -6.3516212036848465,\n                           -0.38811330676312206, -0.6366041853019437, -4.641419060145512, -3.160341532809756,\n                           -0.6403836375528593],\n              'mass_numbers': [12, 12, 12, 12, 12, 14, 14, 14, 14, 14, 1, 1, 1, 1, 1],\n              'masses': [12.0, 12.0, 12.0, 12.0, 12.0, 14.00307400443, 14.00307400443, 14.00307400443, 14.00307400443,\n                         14.00307400443, 1.00782503223, 1.00782503223, 1.00782503223, 1.00782503223, 1.00782503223],\n              'molecular_charge': 0.0,\n              'molecular_multiplicity': 1,\n              'name': 'C5H5N5',\n              'provenance': {'creator': 'QCElemental',\n                             'routine': 'qcelemental.molparse.from_string',\n                             'version': 'v0.19.0'},\n              'real': [True, True, True, True, True, True, True, True, True, True, True, True, True, True, True],\n              'symbols': ['C', 'C', 'C', 'C', 'C', 'N', 'N', 'N', 'N', 'N', 'H', 'H', 'H', 'H', 'H'],\n              'validated': True},\n 'protocols': {},\n 'provenance': {'creator': 'QCElemental', 'routine': 'qcelemental.models.results', 'version': 'v0.17.0'},\n 'schema_name': 'qcschema_input',\n 'schema_version': 1}\n--------------------------------------------------------------------------\n\nScratch directory: /home/ubuntu/pk/scratch/tmp8sf71dmx_psi_scratch/\n\n*** tstart() called on bignimbus\n*** at Mon May 17 15:03:48 2021\n\n   => Loading Basis Set <=\n\n    Name: DEF2-TZVPD\n    Role: ORBITAL\n    Keyword: BASIS\n    atoms 1-5   entry C          line   134 file /home/ubuntu/pk/Applications/miniconda3/envs/psi4-1.4a2.dev923/share/psi4/basis/def2-tzvpd.gbs \n    atoms 6-10  entry N          line   171 file /home/ubuntu/pk/Applications/miniconda3/envs/psi4-1.4a2.dev923/share/psi4/basis/def2-tzvpd.gbs \n    atoms 11-15 entry H          line    14 file /home/ubuntu/pk/Applications/miniconda3/envs/psi4-1.4a2.dev923/share/psi4/basis/def2-tzvpd.gbs \n\n   => B3LYP-D3(BJ): Empirical Dispersion <=\n\n    Grimme's -D3 (BJ-damping) Dispersion Correction\n    Grimme S.; Ehrlich S.; Goerigk L. (2011), J. Comput. Chem., 32: 1456\n\n        s6 =       1.000000\n        s8 =       1.988900\n        a1 =       0.398100\n        a2 =       4.421100\n\n\n         ---------------------------------------------------------\n                                   SCF\n               by Justin Turney, Rob Parrish, Andy Simmonett\n                          and Daniel G. A. Smith\n                              RKS Reference\n                       32 Threads, 190734 MiB Core\n         ---------------------------------------------------------\n\n  ==> Geometry <==\n\n    Molecular point group: c1\n    Full point group: C1\n\n    Geometry (in Bohr), charge = 0, multiplicity = 1:\n\n       Center              X                  Y                   Z               Mass       \n    ------------   -----------------  -----------------  -----------------  -----------------\n         C           -2.600514844651     0.057862058845    -0.058347990912    12.000000000000\n         C           -0.181665404065    -1.051407176799     0.039917767612    12.000000000000\n         C            1.861128537555     0.634228527110     0.085271194623    12.000000000000\n         C           -0.646538030928     3.967705412417     0.032358863110    12.000000000000\n         C            3.108347780357    -3.362542228234     0.004012971228    12.000000000000\n         N           -2.785708004946     2.597653971460    -0.052678812535    14.003074004430\n         N            1.755303874529     3.164571809098     0.098499277501    14.003074004430\n         N            0.630916829882    -3.543955936278    -0.011104837775    14.003074004430\n         N            3.971952619691    -0.900229086762     0.087160920748    14.003074004430\n         N           -4.769920436677    -1.327307191116    -0.111260322425    14.003074004430\n         H           -0.909209962366     6.004830175661     0.019130780232     1.007825032230\n         H            4.406589628547    -4.938573816866    -0.071576073790     1.007825032230\n         H            5.787979426256    -0.316303713996    -0.047009634159     1.007825032230\n         H           -6.351621203685    -0.388113306763    -0.636604185302     1.007825032230\n         H           -4.641419060146    -3.160341532810    -0.640383637553     1.007825032230\n\n  Running in c1 symmetry.\n\n  Rotational constants: A =      0.07881  B =      0.05206  C =      0.03137 [cm^-1]\n  Rotational constants: A =   2362.65971  B =   1560.84141  C =    940.48329 [MHz]\n  Nuclear repulsion =  501.223593903137612\n\n  Charge       = 0\n  Multiplicity = 1\n  Electrons    = 70\n  Nalpha       = 35\n  Nbeta        = 35\n\n  ==> Algorithm <==\n\n  SCF Algorithm Type is DF.\n  DIIS enabled.\n  MOM disabled.\n  Fractional occupation disabled.\n  Guess Type is SAP.\n  Energy threshold   = 1.00e-06\n  Density threshold  = 1.00e-06\n  Integral threshold = 0.00e+00\n\n  ==> Primary Basis <==\n\n  Basis Set: DEF2-TZVPD\n    Blend: DEF2-TZVPD\n    Number of shells: 155\n    Number of basis function: 415\n    Number of Cartesian functions: 475\n    Spherical Harmonics?: true\n    Max angular momentum: 3\n\n  ==> DFT Potential <==\n\n   => Composite Functional: B3LYP-D3BJ <= \n\n    B3LYP-d3bj Hyb-GGA Exchange-Correlation Functional\n\n    P. J. Stephens, F. J. Devlin, C. F. Chabalowski, and M. J. Frisch, J. Phys. Chem. 98, 11623 (1994)\n\n    Deriv               =              1\n    GGA                 =           TRUE\n    Meta                =          FALSE\n\n    Exchange Hybrid     =           TRUE\n    MP2 Hybrid          =          FALSE\n\n   => Exchange Functionals <=\n\n    0.0800   Slater exchange\n    0.7200         Becke 88\n\n   => Exact (HF) Exchange <=\n\n    0.2000               HF \n\n   => Correlation Functionals <=\n\n    0.1900   Vosko, Wilk & Nusair (VWN5_RPA)\n    0.8100   Lee, Yang & Parr\n\n   => LibXC Density Thresholds  <==\n\n    XC_HYB_GGA_XC_B3LYP:  1.00E-32 \n\n   => Molecular Quadrature <=\n\n    Radial Scheme          =       TREUTLER\n    Pruning Scheme         =           NONE\n    Nuclear Scheme         =       TREUTLER\n\n    BS radius alpha        =              1\n    Pruning alpha          =              1\n    Radial Points          =             75\n    Spherical Points       =            302\n    Total Points           =         317510\n    Total Blocks           =           2380\n    Max Points             =            256\n    Max Functions          =            395\n    Weights Tolerance      =       1.00E-15\n\n   => Loading Basis Set <=\n\n    Name: (DEF2-TZVPD AUX)\n    Role: JKFIT\n    Keyword: DF_BASIS_SCF\n    atoms 1-5   entry C          line   198 file /home/ubuntu/pk/Applications/miniconda3/envs/psi4-1.4a2.dev923/share/psi4/basis/def2-universal-jkfit.gbs \n    atoms 6-10  entry N          line   258 file /home/ubuntu/pk/Applications/miniconda3/envs/psi4-1.4a2.dev923/share/psi4/basis/def2-universal-jkfit.gbs \n    atoms 11-15 entry H          line    18 file /home/ubuntu/pk/Applications/miniconda3/envs/psi4-1.4a2.dev923/share/psi4/basis/def2-universal-jkfit.gbs \n\n  ==> Integral Setup <==\n\n  DFHelper Memory: AOs need 1.123 GiB; user supplied 136.931 GiB. Using in-core AOs.\n\n  ==> MemDFJK: Density-Fitted J/K Matrices <==\n\n    J tasked:                   Yes\n    K tasked:                   Yes\n    wK tasked:                   No\n    OpenMP threads:              32\n    Memory [MiB]:            140217\n    Algorithm:                 Core\n    Schwarz Cutoff:           1E-12\n    Mask sparsity (%):       4.5034\n    Fitting Condition:        1E-10\n\n   => Auxiliary Basis Set <=\n\n  Basis Set: (DEF2-TZVPD AUX)\n    Blend: DEF2-UNIVERSAL-JKFIT\n    Number of shells: 280\n    Number of basis function: 850\n    Number of Cartesian functions: 1010\n    Spherical Harmonics?: true\n    Max angular momentum: 4\n\n  Cached 100.0% of DFT collocation blocks in 2.767 [GiB].\n\n  Minimum eigenvalue in the overlap matrix is 1.0227625614E-06.\n  Reciprocal condition number of the overlap matrix is 6.5465495355E-08.\n    Using symmetric orthogonalization.\n\n  ==> Pre-Iterations <==\n\n  SCF Guess: Superposition of Atomic Potentials (doi:10.1021/acs.jctc.8b01089).\n\n  ==> SAP guess <==\n\n   => Molecular Quadrature <=\n\n    Radial Scheme          =       TREUTLER\n    Pruning Scheme         =           NONE\n    Nuclear Scheme         =       TREUTLER\n\n    BS radius alpha        =              1\n    Pruning alpha          =              1\n    Radial Points          =             75\n    Spherical Points       =            302\n    Total Points           =         317511\n    Total Blocks           =           2379\n    Max Points             =            256\n    Max Functions          =            395\n    Weights Tolerance      =       1.00E-15\n\n   -------------------------------------------------------\n    Irrep   Nso     Nmo     Nalpha   Nbeta   Ndocc  Nsocc\n   -------------------------------------------------------\n     A        415     415      35      35      35       0\n   -------------------------------------------------------\n    Total     415     415      35      35      35       0\n   -------------------------------------------------------\n\n  ==> Iterations <==\n\n                           Total Energy        Delta E     RMS |[F,P]|\n\n   @DF-RKS iter   1:  -464.46967814398408   -4.64470e+02   6.04501e-03 DIIS\n   @DF-RKS iter   2:  -446.66394623689484    1.78057e+01   1.30755e-02 DIIS\n   @DF-RKS iter   3:  -467.18395572490533   -2.05200e+01   1.96439e-03 DIIS\n   @DF-RKS iter   4:  -467.02419020217377    1.59766e-01   2.54385e-03 DIIS\n   @DF-RKS iter   5:  -467.51444464886123   -4.90254e-01   4.72467e-04 DIIS\n   @DF-RKS iter   6:  -467.52620104639703   -1.17564e-02   2.70750e-04 DIIS\n   @DF-RKS iter   7:  -467.53153196470248   -5.33092e-03   5.90143e-05 DIIS\n   @DF-RKS iter   8:  -467.53172835996480   -1.96395e-04   3.13350e-05 DIIS\n   @DF-RKS iter   9:  -467.53180630200842   -7.79420e-05   5.10020e-06 DIIS\n   @DF-RKS iter  10:  -467.53180773484081   -1.43283e-06   2.75279e-06 DIIS\n   @DF-RKS iter  11:  -467.53180826337342   -5.28533e-07   6.09556e-07 DIIS\n  Energy and wave function converged.\n\n\n  ==> Post-Iterations <==\n\n    Orbital Energies [Eh]\n    ---------------------\n\n    Doubly Occupied:                                                      \n\n       1A    -14.389062     2A    -14.344370     3A    -14.325060  \n       4A    -14.317822     5A    -14.312045     6A    -10.266731  \n       7A    -10.257482     8A    -10.252688     9A    -10.239484  \n      10A    -10.208060    11A     -1.041475    12A     -0.983476  \n      13A     -0.941585    14A     -0.895328    15A     -0.864208  \n      16A     -0.771648    17A     -0.673075    18A     -0.657038  \n      19A     -0.636053    20A     -0.586768    21A     -0.555212  \n      22A     -0.520961    23A     -0.505145    24A     -0.474607  \n      25A     -0.466302    26A     -0.449553    27A     -0.427444  \n      28A     -0.411081    29A     -0.366851    30A     -0.329764  \n      31A     -0.307071    32A     -0.296319    33A     -0.278342  \n      34A     -0.263534    35A     -0.234685  \n\n    Virtual:                                                              \n\n      36A     -0.039333    37A     -0.011912    38A     -0.005079  \n      39A      0.010002    40A      0.018113    41A      0.028746  \n      42A      0.037436    43A      0.044780    44A      0.064470  \n      45A      0.084487    46A      0.092533    47A      0.096084  \n      48A      0.098286    49A      0.117621    50A      0.119942  \n      51A      0.131000    52A      0.135672    53A      0.140797  \n      54A      0.145145    55A      0.157028    56A      0.170370  \n      57A      0.174307    58A      0.183765    59A      0.185340  \n      60A      0.187852    61A      0.190582    62A      0.197062  \n      63A      0.207348    64A      0.212800    65A      0.214715  \n      66A      0.218087    67A      0.221985    68A      0.231910  \n      69A      0.241092    70A      0.244337    71A      0.253412  \n      72A      0.255583    73A      0.259398    74A      0.265976  \n      75A      0.276337    76A      0.284311    77A      0.285576  \n      78A      0.287826    79A      0.294657    80A      0.301889  \n      81A      0.309254    82A      0.317831    83A      0.327703  \n      84A      0.335668    85A      0.336817    86A      0.346141  \n      87A      0.348222    88A      0.358210    89A      0.369291  \n      90A      0.374229    91A      0.376168    92A      0.383526  \n      93A      0.388057    94A      0.397800    95A      0.400285  \n      96A      0.410213    97A      0.416443    98A      0.422600  \n      99A      0.433557   100A      0.441402   101A      0.450882  \n     102A      0.455436   103A      0.463665   104A      0.468604  \n     105A      0.474420   106A      0.478606   107A      0.489618  \n     108A      0.492208   109A      0.505579   110A      0.513023  \n     111A      0.516193   112A      0.520010   113A      0.524049  \n     114A      0.528885   115A      0.535180   116A      0.545194  \n     117A      0.549103   118A      0.559170   119A      0.569779  \n     120A      0.574721   121A      0.578547   122A      0.586659  \n     123A      0.594264   124A      0.603504   125A      0.611617  \n     126A      0.622554   127A      0.629283   128A      0.638508  \n     129A      0.641666   130A      0.645832   131A      0.649906  \n     132A      0.661041   133A      0.668386   134A      0.671503  \n     135A      0.680050   136A      0.680521   137A      0.686949  \n     138A      0.704685   139A      0.707425   140A      0.712442  \n     141A      0.718378   142A      0.723423   143A      0.732745  \n     144A      0.738727   145A      0.750581   146A      0.756968  \n     147A      0.772950   148A      0.781644   149A      0.792497  \n     150A      0.793618   151A      0.802286   152A      0.804774  \n     153A      0.811737   154A      0.822691   155A      0.829446  \n     156A      0.840024   157A      0.870467   158A      0.879190  \n     159A      0.888638   160A      0.893141   161A      0.901751  \n     162A      0.919852   163A      0.929724   164A      0.936879  \n     165A      0.941203   166A      0.953814   167A      0.972317  \n     168A      0.974838   169A      0.981566   170A      0.999567  \n     171A      1.008703   172A      1.019247   173A      1.034023  \n     174A      1.043144   175A      1.058996   176A      1.062891  \n     177A      1.072985   178A      1.084281   179A      1.101259  \n     180A      1.104359   181A      1.106169   182A      1.127416  \n     183A      1.152670   184A      1.157207   185A      1.184900  \n     186A      1.253202   187A      1.259573   188A      1.267161  \n     189A      1.287911   190A      1.329952   191A      1.347032  \n     192A      1.361122   193A      1.384985   194A      1.391928  \n     195A      1.408499   196A      1.425636   197A      1.441798  \n     198A      1.478268   199A      1.484201   200A      1.494419  \n     201A      1.512636   202A      1.535222   203A      1.558992  \n     204A      1.581440   205A      1.604234   206A      1.613331  \n     207A      1.642086   208A      1.669242   209A      1.683744  \n     210A      1.706099   211A      1.722019   212A      1.737703  \n     213A      1.754610   214A      1.758152   215A      1.769901  \n     216A      1.788747   217A      1.798448   218A      1.824271  \n     219A      1.831530   220A      1.845503   221A      1.854852  \n     222A      1.872798   223A      1.886670   224A      1.900484  \n     225A      1.917978   226A      1.928643   227A      1.939325  \n     228A      1.955301   229A      1.969122   230A      1.993619  \n     231A      1.996157   232A      2.006260   233A      2.019534  \n     234A      2.051231   235A      2.103675   236A      2.126046  \n     237A      2.139580   238A      2.167316   239A      2.190404  \n     240A      2.216313   241A      2.218369   242A      2.231495  \n     243A      2.253670   244A      2.272458   245A      2.299471  \n     246A      2.318377   247A      2.330322   248A      2.352663  \n     249A      2.364984   250A      2.404609   251A      2.425649  \n     252A      2.449642   253A      2.456285   254A      2.488952  \n     255A      2.499324   256A      2.534296   257A      2.557796  \n     258A      2.577558   259A      2.591091   260A      2.611402  \n     261A      2.621142   262A      2.628770   263A      2.649217  \n     264A      2.687218   265A      2.723214   266A      2.748075  \n     267A      2.760300   268A      2.769018   269A      2.804842  \n     270A      2.835875   271A      2.843796   272A      2.893670  \n     273A      2.922419   274A      2.936579   275A      2.946350  \n     276A      2.960336   277A      2.980989   278A      2.989268  \n     279A      3.008231   280A      3.026137   281A      3.040227  \n     282A      3.047654   283A      3.051248   284A      3.062336  \n     285A      3.075842   286A      3.099147   287A      3.102498  \n     288A      3.114560   289A      3.138872   290A      3.155632  \n     291A      3.167934   292A      3.188058   293A      3.191475  \n     294A      3.233996   295A      3.251424   296A      3.259882  \n     297A      3.297759   298A      3.301273   299A      3.313694  \n     300A      3.321634   301A      3.324776   302A      3.345016  \n     303A      3.348066   304A      3.371498   305A      3.410334  \n     306A      3.420846   307A      3.422674   308A      3.444281  \n     309A      3.456396   310A      3.472928   311A      3.486022  \n     312A      3.503211   313A      3.521546   314A      3.559875  \n     315A      3.579919   316A      3.600230   317A      3.612884  \n     318A      3.623011   319A      3.659488   320A      3.710903  \n     321A      3.729444   322A      3.757430   323A      3.826336  \n     324A      3.857910   325A      3.898910   326A      3.916744  \n     327A      3.967829   328A      3.983029   329A      4.023212  \n     330A      4.031132   331A      4.047383   332A      4.065176  \n     333A      4.097555   334A      4.149022   335A      4.170347  \n     336A      4.195199   337A      4.229941   338A      4.263380  \n     339A      4.282871   340A      4.338325   341A      4.370373  \n     342A      4.398237   343A      4.434177   344A      4.459183  \n     345A      4.518038   346A      4.540323   347A      4.572888  \n     348A      4.607868   349A      4.639547   350A      4.709362  \n     351A      4.726021   352A      4.754755   353A      4.794816  \n     354A      4.806434   355A      4.829692   356A      4.859362  \n     357A      4.869173   358A      4.890082   359A      4.909708  \n     360A      4.944426   361A      4.960457   362A      4.983676  \n     363A      5.000263   364A      5.048944   365A      5.067004  \n     366A      5.095162   367A      5.099843   368A      5.114021  \n     369A      5.158499   370A      5.165861   371A      5.181489  \n     372A      5.201479   373A      5.218693   374A      5.239009  \n     375A      5.253446   376A      5.283993   377A      5.294496  \n     378A      5.326456   379A      5.351533   380A      5.364074  \n     381A      5.385880   382A      5.408140   383A      5.427975  \n     384A      5.474239   385A      5.487434   386A      5.523128  \n     387A      5.535911   388A      5.550561   389A      5.559880  \n     390A      5.575722   391A      5.586878   392A      5.669506  \n     393A      5.683944   394A      5.729510   395A      5.774471  \n     396A      5.794597   397A      5.858998   398A      5.908216  \n     399A      5.977950   400A      6.009169   401A      6.030682  \n     402A      6.168936   403A      6.265510   404A      6.306897  \n     405A      6.616477   406A     22.901654   407A     23.038125  \n     408A     23.195219   409A     23.224671   410A     23.494811  \n     411A     32.343542   412A     32.562051   413A     32.644929  \n     414A     32.709702   415A     32.896356  \n\n    Final Occupation by Irrep:\n              A \n    DOCC [    35 ]\n\n  @DF-RKS Final Energy:  -467.53180826337342\n\n   => Energetics <=\n\n    Nuclear Repulsion Energy =            501.2235939031376120\n    One-Electron Energy =               -1626.7426624951178837\n    Two-Electron Energy =                 709.5117370805108976\n    DFT Exchange-Correlation Energy =     -51.4968887019041119\n    Empirical Dispersion Energy =          -0.0275880500000000\n    VV10 Nonlocal Energy =                  0.0000000000000000\n    Total Energy =                       -467.5318082633734207\n\nComputation Completed\n\n\nProperties will be evaluated at   0.000000,   0.000000,   0.000000 [a0]\n\nProperties computed using the SCF density matrix\n\n  Nuclear Dipole Moment: [e a0]\n     X:    -0.8453      Y:    -1.3883      Z:    -0.6829\n\n  Electronic Dipole Moment: [e a0]\n     X:     1.4425      Y:     0.6460      Z:     0.3253\n\n  Dipole Moment: [e a0]\n     X:     0.5971      Y:    -0.7423      Z:    -0.3576     Total:     1.0176\n\n  Dipole Moment: [D]\n     X:     1.5178      Y:    -1.8867      Z:    -0.9089     Total:     2.5864\n\n\n*** tstop() called on bignimbus at Mon May 17 15:04:03 2021\nModule time:\n\tuser time   =     365.52 seconds =       6.09 minutes\n\tsystem time =      11.87 seconds =       0.20 minutes\n\ttotal time  =         15 seconds =       0.25 minutes\nTotal time:\n\tuser time   =     365.52 seconds =       6.09 minutes\n\tsystem time =      11.87 seconds =       0.20 minutes\n\ttotal time  =         15 seconds =       0.25 minutes\n\n    Psi4 stopped on: Monday, 17 May 2021 03:04PM\n    Psi4 wall time for execution: 0:00:15.96\n\n*** Psi4 exiting successfully. Buy a developer a beer!\n",
 "stderr": null,
 "success": true,
 "error": null,
 "tag": "b3lyp-d3bj def2-tzvpd c3a_a"
}