{
 "id": null,
 "schema_name": "qcschema_output",
 "schema_version": 1,
 "molecule": {
  "validated": true,
  "symbols": [
   "C",
   "C",
   "C",
   "C",
   "C",
   "C",
   "C",
   "C",
   "C",
   "N",
   "N",
   "N",
   "N",
   "N",
   "N",
   "N",
   "N",
   "O",
   "O",
   "H",
   "H",
   "H",
   "H",
   "H",
   "H",
   "H",
   "H",
   "H",
   "H"
  ],
  "geometry": [
   -5.385731230938672,
   -0.06512979195590196,
   -2.408510240614475,
   -9.333369107020077,
   -0.3920524116601065,
   -0.08225738017588884,
   -8.074811507465164,
   -0.25599213062714243,
   2.149509173989806,
   -5.368723695809551,
   -0.06324006583044417,
   2.039905058713252,
   2.48686780771864,
   0.11061473771167618,
   2.011559166831385,
   2.496316438345929,
   0.18242433047907314,
   -2.6768513504294873,
   6.185061835239609,
   0.09171747645709827,
   -0.6794108358205626,
   5.168389179743299,
   0.10872501158621839,
   1.7658947705218673,
   9.155711304459315,
   -0.055681161328613,
   2.2742310982700227,
   -8.042686163332379,
   -0.2843380225090102,
   -2.304575303714295,
   -4.125283905258301,
   0.0482537755715673,
   -0.17674368644878027,
   -3.98733389809988,
   0.00856952693695368,
   4.156398319226019,
   1.2925608964292925,
   0.15974761697357875,
   -0.3694957512454787,
   4.998313828452094,
   0.13518117734262747,
   -2.9300746512408358,
   7.056225579075669,
   0.01801815756424264,
   3.5819215770868396,
   8.756979091987713,
   0.006679800811495002,
   -0.3165834197326595,
   1.026109512739739,
   0.2920284457556277,
   -4.761219266809471,
   -4.359609944815071,
   -0.01032773431762512,
   -4.515554870499954,
   1.1886259595291122,
   0.04447432332065172,
   3.978764063432984,
   -8.927077990046644,
   -0.5243332404421541,
   -3.986431555371763,
   -11.362934965761784,
   -0.6225989989659614,
   -0.21075875670702118,
   -9.076366353957813,
   -0.37504487653098595,
   3.9277414580456225,
   -4.841490106806818,
   -0.27488939188172123,
   5.840144297008944,
   -2.0125700969964484,
   0.027466788191531595,
   4.078919548082249,
   -0.6840926307995956,
   0.13896062959354305,
   -0.3317012287363222,
   11.03976825154077,
   -0.17473390723245563,
   3.052798261958648,
   10.06466957080453,
   -0.19363116848703443,
   -1.6979732174423317,
   1.9218396962067494,
   0.025577062066073804,
   -6.426067983337818,
   -0.9127494919799929,
   0.1257325467153385,
   -4.691299400167532
  ],
  "name": "C9H10N8O2",
  "molecular_charge": 0.0,
  "molecular_multiplicity": 1,
  "masses": [
   12.0,
   12.0,
   12.0,
   12.0,
   12.0,
   12.0,
   12.0,
   12.0,
   12.0,
   14.00307400443,
   14.00307400443,
   14.00307400443,
   14.00307400443,
   14.00307400443,
   14.00307400443,
   14.00307400443,
   14.00307400443,
   15.99491461957,
   15.99491461957,
   1.00782503223,
   1.00782503223,
   1.00782503223,
   1.00782503223,
   1.00782503223,
   1.00782503223,
   1.00782503223,
   1.00782503223,
   1.00782503223,
   1.00782503223
  ],
  "real": [
   true,
   true,
   true,
   true,
   true,
   true,
   true,
   true,
   true,
   true,
   true,
   true,
   true,
   true,
   true,
   true,
   true,
   true,
   true,
   true,
   true,
   true,
   true,
   true,
   true,
   true,
   true,
   true,
   true
  ],
  "atom_labels": [
   "",
   "",
   "",
   "",
   "",
   "",
   "",
   "",
   "",
   "",
   "",
   "",
   "",
   "",
   "",
   "",
   "",
   "",
   "",
   "",
   "",
   "",
   "",
   "",
   "",
   "",
   "",
   "",
   ""
  ],
  "atomic_numbers": [
   6,
   6,
   6,
   6,
   6,
   6,
   6,
   6,
   6,
   7,
   7,
   7,
   7,
   7,
   7,
   7,
   7,
   8,
   8,
   1,
   1,
   1,
   1,
   1,
   1,
   1,
   1,
   1,
   1
  ],
  "mass_numbers": [
   12,
   12,
   12,
   12,
   12,
   12,
   12,
   12,
   12,
   14,
   14,
   14,
   14,
   14,
   14,
   14,
   14,
   16,
   16,
   1,
   1,
   1,
   1,
   1,
   1,
   1,
   1,
   1,
   1
  ],
  "fragments": [
   [
    0,
    1,
    2,
    3,
    4,
    5,
    6,
    7,
    8,
    9,
    10,
    11,
    12,
    13,
    14,
    15,
    16,
    17,
    18,
    19,
    20,
    21,
    22,
    23,
    24,
    25,
    26,
    27,
    28
   ]
  ],
  "fragment_charges": [
   0.0
  ],
  "fragment_multiplicities": [
   1
  ],
  "fix_com": false,
  "fix_orientation": false,
  "provenance": {
   "creator": "QCElemental",
   "version": "v0.19.0",
   "routine": "qcelemental.molparse.from_string"
  }
 },
 "driver": "energy",
 "model": {
  "method": "b97m-v",
  "basis": "pcseg-1"
 },
 "keywords": {},
 "protocols": {},
 "extras": {
  "qcvars": {
   "CURRENT DIPOLE X": -6.036017559841251,
   "CURRENT DIPOLE Y": -1.2748506523792869,
   "CURRENT DIPOLE Z": -1.6706828296936298,
   "CURRENT ENERGY": -937.2144152796179,
   "CURRENT REFERENCE ENERGY": -937.2144152796179,
   "DFT FUNCTIONAL TOTAL ENERGY": -937.2144152796179,
   "DFT TOTAL ENERGY": -937.2144152796179,
   "DFT VV10 ENERGY": 0.5143189878967579,
   "DFT XC ENERGY": -125.57362955571577,
   "NUCLEAR REPULSION ENERGY": 1391.394659364626,
   "ONE-ELECTRON ENERGY": -4038.6802397243814,
   "PCM POLARIZATION ENERGY": 0.0,
   "PE ENERGY": 0.0,
   "SCF DIPOLE X": -6.036017559841251,
   "SCF DIPOLE Y": -1.2748506523792869,
   "SCF DIPOLE Z": -1.6706828296936298,
   "SCF ITERATION ENERGY": -937.2144152796179,
   "SCF ITERATIONS": 10.0,
   "SCF TOTAL ENERGY": -937.2144152796179,
   "TWO-ELECTRON ENERGY": 1835.1304756479565,
   "XC GRID RADIAL POINTS": 75.0,
   "XC GRID SPHERICAL POINTS": 302.0,
   "XC GRID TOTAL POINTS": 599224.0,
   "CURRENT DIPOLE": [
    -2.374752035294879,
    -0.5015648399661612,
    -0.657297201476581
   ],
   "SCF DIPOLE": [
    -2.374752035294879,
    -0.5015648399661612,
    -0.657297201476581
   ]
  }
 },
 "provenance": {
  "creator": "Psi4",
  "version": "1.4a2.dev923",
  "routine": "psi4.schema_runner.run_qcschema",
  "username": "ubuntu",
  "memory": 256.0,
  "cpu": "AMD EPYC Processor (with IBPB)",
  "nthreads": 16,
  "wall_time": 94.20463514328003,
  "hostname": "bignimbus",
  "qcengine_version": "v0.17.0"
 },
 "properties": {
  "calcinfo_nbasis": 316,
  "calcinfo_nmo": 316,
  "calcinfo_nalpha": 68,
  "calcinfo_nbeta": 68,
  "calcinfo_natom": 29,
  "nuclear_repulsion_energy": 1391.394659364626,
  "return_energy": -937.2144152796179,
  "scf_one_electron_energy": -4038.6802397243814,
  "scf_two_electron_energy": 1835.1304756479565,
  "scf_vv10_energy": 0.5143189878967579,
  "scf_xc_energy": -125.57362955571577,
  "scf_dipole_moment": [
   -2.374752035294879,
   -0.5015648399661612,
   -0.657297201476581
  ],
  "scf_total_energy": -937.2144152796179,
  "scf_iterations": 10
 },
 "wavefunction": null,
 "return_result": -937.2144152796179,
 "stdout": "\n    -----------------------------------------------------------------------\n          Psi4: An Open-Source Ab Initio Electronic Structure Package\n                               Psi4 1.4a2.dev923 \n\n                         Git: Rev {master} 5de566e \n\n\n    D. G. A. Smith, L. A. Burns, A. C. Simmonett, R. M. Parrish,\n    M. C. Schieber, R. Galvelis, P. Kraus, H. Kruse, R. Di Remigio,\n    A. Alenaizan, A. M. James, S. Lehtola, J. P. Misiewicz, M. Scheurer,\n    R. A. Shaw, J. B. Schriber, Y. Xie, Z. L. Glick, D. A. Sirianni,\n    J. S. O'Brien, J. M. Waldrop, A. Kumar, E. G. Hohenstein,\n    B. P. Pritchard, B. R. Brooks, H. F. Schaefer III, A. Yu. Sokolov,\n    K. Patkowski, A. E. DePrince III, U. Bozkaya, R. A. King,\n    F. A. Evangelista, J. M. Turney, T. D. Crawford, C. D. Sherrill,\n    J. Chem. Phys. 152(18) 184108 (2020). https://doi.org/10.1063/5.0006002\n\n                            Additional Code Authors\n    E. T. Seidl, C. L. Janssen, E. F. Valeev, M. L. Leininger,\n    J. F. Gonthier, R. M. Richard, H. R. McAlexander, M. Saitow, X. Wang,\n    P. Verma, and M. H. Lechner\n\n             Previous Authors, Complete List of Code Contributors,\n                       and Citations for Specific Modules\n    https://github.com/psi4/psi4/blob/master/codemeta.json\n    https://github.com/psi4/psi4/graphs/contributors\n    http://psicode.org/psi4manual/master/introduction.html#citing-psifour\n\n    -----------------------------------------------------------------------\n\n\n    Psi4 started on: Sunday, 25 April 2021 12:08AM\n\n    Process ID: 3922683\n    Host:       bignimbus\n    PSIDATADIR: /home/ubuntu/pk/Applications/miniconda3/envs/psi4-1.4a2.dev923/share/psi4\n    Memory:     238.4 GiB\n    Threads:    16\n    \n  ==> Input QCSchema <==\n\n--------------------------------------------------------------------------\n{'driver': 'energy',\n 'extras': {},\n 'id': None,\n 'keywords': {},\n 'model': {'basis': 'pcseg-1', 'method': 'b97m-v'},\n 'molecule': {'atom_labels': ['', '', '', '', '', '', '', '', '', '', '', '', '', '', '', '', '', '', '', '', '', '',\n                              '', '', '', '', '', '', ''],\n              'atomic_numbers': [6, 6, 6, 6, 6, 6, 6, 6, 6, 7, 7, 7, 7, 7, 7, 7, 7, 8, 8, 1, 1, 1, 1, 1, 1, 1, 1, 1, 1],\n              'fix_com': False,\n              'fix_orientation': False,\n              'fragment_charges': [0.0],\n              'fragment_multiplicities': [1],\n              'fragments': [[0, 1, 2, 3, 4, 5, 6, 7, 8, 9, 10, 11, 12, 13, 14, 15, 16, 17, 18, 19, 20, 21, 22, 23, 24,\n                             25, 26, 27, 28]],\n              'geometry': [-5.3857312309386725, -0.06512979195590063, -2.408510240614475, -9.333369107020077,\n                           -0.3920524116601052, -0.08225738017588882, -8.074811507465164, -0.2559921306271411,\n                           2.149509173989806, -5.368723695809552, -0.06324006583044284, 2.039905058713252,\n                           2.4868678077186392, 0.11061473771167751, 2.011559166831385, 2.496316438345928,\n                           0.18242433047907447, -2.6768513504294873, 6.185061835239608, 0.0917174764570996,\n                           -0.6794108358205626, 5.168389179743298, 0.10872501158621972, 1.7658947705218673,\n                           9.155711304459315, -0.05568116132861167, 2.2742310982700227, -8.042686163332379,\n                           -0.28433802250900886, -2.304575303714295, -4.125283905258302, 0.048253775571568625,\n                           -0.17674368644878025, -3.9873338980998807, 0.008569526936955008, 4.156398319226019,\n                           1.2925608964292916, 0.1597476169735801, -0.3694957512454787, 4.998313828452093,\n                           0.1351811773426288, -2.9300746512408358, 7.056225579075668, 0.018018157564243964,\n                           3.5819215770868396, 8.756979091987713, 0.006679800811496328, -0.3165834197326595,\n                           1.0261095127397382, 0.29202844575562903, -4.761219266809471, -4.359609944815072,\n                           -0.010327734317623793, -4.515554870499954, 1.1886259595291113, 0.04447432332065304,\n                           3.978764063432984, -8.927077990046644, -0.5243332404421528, -3.986431555371763,\n                           -11.362934965761784, -0.62259899896596, -0.21075875670702116, -9.076366353957813,\n                           -0.3750448765309846, 3.9277414580456225, -4.841490106806819, -0.2748893918817199,\n                           5.840144297008944, -2.0125700969964493, 0.02746678819153292, 4.078919548082249,\n                           -0.6840926307995965, 0.13896062959354438, -0.3317012287363222, 11.03976825154077,\n                           -0.1747339072324543, 3.052798261958648, 10.06466957080453, -0.1936311684870331,\n                           -1.6979732174423317, 1.9218396962067485, 0.02557706206607513, -6.426067983337818,\n                           -0.9127494919799938, 0.12573254671533984, -4.691299400167532],\n              'mass_numbers': [12, 12, 12, 12, 12, 12, 12, 12, 12, 14, 14, 14, 14, 14, 14, 14, 14, 16, 16, 1, 1, 1, 1,\n                               1, 1, 1, 1, 1, 1],\n              'masses': [12.0, 12.0, 12.0, 12.0, 12.0, 12.0, 12.0, 12.0, 12.0, 14.00307400443, 14.00307400443,\n                         14.00307400443, 14.00307400443, 14.00307400443, 14.00307400443, 14.00307400443, 14.00307400443,\n                         15.99491461957, 15.99491461957, 1.00782503223, 1.00782503223, 1.00782503223, 1.00782503223,\n                         1.00782503223, 1.00782503223, 1.00782503223, 1.00782503223, 1.00782503223, 1.00782503223],\n              'molecular_charge': 0.0,\n              'molecular_multiplicity': 1,\n              'name': 'C9H10N8O2',\n              'provenance': {'creator': 'QCElemental',\n                             'routine': 'qcelemental.molparse.from_string',\n                             'version': 'v0.19.0'},\n              'real': [True, True, True, True, True, True, True, True, True, True, True, True, True, True, True, True,\n                       True, True, True, True, True, True, True, True, True, True, True, True, True],\n              'symbols': ['C', 'C', 'C', 'C', 'C', 'C', 'C', 'C', 'C', 'N', 'N', 'N', 'N', 'N', 'N', 'N', 'N', 'O', 'O',\n                          'H', 'H', 'H', 'H', 'H', 'H', 'H', 'H', 'H', 'H'],\n              'validated': True},\n 'protocols': {},\n 'provenance': {'creator': 'QCElemental', 'routine': 'qcelemental.models.results', 'version': 'v0.17.0'},\n 'schema_name': 'qcschema_input',\n 'schema_version': 1}\n--------------------------------------------------------------------------\n\nScratch directory: /home/ubuntu/pk/scratch/tmps0lt5q4h_psi_scratch/\n\n*** tstart() called on bignimbus\n*** at Sun Apr 25 00:08:13 2021\n\n   => Loading Basis Set <=\n\n    Name: PCSEG-1\n    Role: ORBITAL\n    Keyword: BASIS\n    atoms 1-9   entry C          line    90 file /home/ubuntu/pk/Applications/miniconda3/envs/psi4-1.4a2.dev923/share/psi4/basis/pcseg-1.gbs \n    atoms 10-17 entry N          line   111 file /home/ubuntu/pk/Applications/miniconda3/envs/psi4-1.4a2.dev923/share/psi4/basis/pcseg-1.gbs \n    atoms 18-19 entry O          line   132 file /home/ubuntu/pk/Applications/miniconda3/envs/psi4-1.4a2.dev923/share/psi4/basis/pcseg-1.gbs \n    atoms 20-29 entry H          line    13 file /home/ubuntu/pk/Applications/miniconda3/envs/psi4-1.4a2.dev923/share/psi4/basis/pcseg-1.gbs \n\n\n         ---------------------------------------------------------\n                                   SCF\n               by Justin Turney, Rob Parrish, Andy Simmonett\n                          and Daniel G. A. Smith\n                              RKS Reference\n                       16 Threads, 244140 MiB Core\n         ---------------------------------------------------------\n\n  ==> Geometry <==\n\n    Molecular point group: c1\n    Full point group: C1\n\n    Geometry (in Bohr), charge = 0, multiplicity = 1:\n\n       Center              X                  Y                   Z               Mass       \n    ------------   -----------------  -----------------  -----------------  -----------------\n         C           -5.385731230939    -0.065129791956    -2.408510240614    12.000000000000\n         C           -9.333369107020    -0.392052411660    -0.082257380176    12.000000000000\n         C           -8.074811507465    -0.255992130627     2.149509173990    12.000000000000\n         C           -5.368723695810    -0.063240065830     2.039905058713    12.000000000000\n         C            2.486867807719     0.110614737712     2.011559166831    12.000000000000\n         C            2.496316438346     0.182424330479    -2.676851350429    12.000000000000\n         C            6.185061835240     0.091717476457    -0.679410835821    12.000000000000\n         C            5.168389179743     0.108725011586     1.765894770522    12.000000000000\n         C            9.155711304459    -0.055681161329     2.274231098270    12.000000000000\n         N           -8.042686163332    -0.284338022509    -2.304575303714    14.003074004430\n         N           -4.125283905258     0.048253775572    -0.176743686449    14.003074004430\n         N           -3.987333898100     0.008569526937     4.156398319226    14.003074004430\n         N            1.292560896429     0.159747616974    -0.369495751245    14.003074004430\n         N            4.998313828452     0.135181177343    -2.930074651241    14.003074004430\n         N            7.056225579076     0.018018157564     3.581921577087    14.003074004430\n         N            8.756979091988     0.006679800811    -0.316583419733    14.003074004430\n         N            1.026109512740     0.292028445756    -4.761219266809    14.003074004430\n         O           -4.359609944815    -0.010327734318    -4.515554870500    15.994914619570\n         O            1.188625959529     0.044474323321     3.978764063433    15.994914619570\n         H           -8.927077990047    -0.524333240442    -3.986431555372     1.007825032230\n         H          -11.362934965762    -0.622598998966    -0.210758756707     1.007825032230\n         H           -9.076366353958    -0.375044876531     3.927741458046     1.007825032230\n         H           -4.841490106807    -0.274889391882     5.840144297009     1.007825032230\n         H           -2.012570096996     0.027466788192     4.078919548082     1.007825032230\n         H           -0.684092630800     0.138960629594    -0.331701228736     1.007825032230\n         H           11.039768251541    -0.174733907232     3.052798261959     1.007825032230\n         H           10.064669570805    -0.193631168487    -1.697973217442     1.007825032230\n         H            1.921839696207     0.025577062066    -6.426067983338     1.007825032230\n         H           -0.912749491980     0.125732546715    -4.691299400168     1.007825032230\n\n  Running in c1 symmetry.\n\n  Rotational constants: A =      0.02936  B =      0.00676  C =      0.00550 [cm^-1]\n  Rotational constants: A =    880.10499  B =    202.52246  C =    164.76767 [MHz]\n  Nuclear repulsion = 1391.394659364626023\n\n  Charge       = 0\n  Multiplicity = 1\n  Electrons    = 136\n  Nalpha       = 68\n  Nbeta        = 68\n\n  ==> Algorithm <==\n\n  SCF Algorithm Type is DF.\n  DIIS enabled.\n  MOM disabled.\n  Fractional occupation disabled.\n  Guess Type is SAD.\n  Energy threshold   = 1.00e-06\n  Density threshold  = 1.00e-06\n  Integral threshold = 0.00e+00\n\n  ==> Primary Basis <==\n\n  Basis Set: PCSEG-1\n    Blend: PCSEG-1\n    Number of shells: 144\n    Number of basis function: 316\n    Number of Cartesian functions: 335\n    Spherical Harmonics?: true\n    Max angular momentum: 2\n\n  ==> DFT Potential <==\n\n   => Composite Functional: B97M-V <= \n\n    B97M-V GGA Exchange-Correlation Functional\n\n    N. Mardirossian and M. Head-Gordon, J. Chem. Phys. 142, 074111 (2015)\n\n    Deriv               =              1\n    GGA                 =           TRUE\n    Meta                =           TRUE\n\n    Exchange Hybrid     =          FALSE\n    MP2 Hybrid          =          FALSE\n\n   => Exchange-Correlation Functionals <=\n\n    1.0000   B97M-V exchange-correlation functional\n\n   => LibXC Density Thresholds  <==\n\n    XC_MGGA_XC_B97M_V:  1.00E-23 \n\n   => VV10 Non-Local Parameters <=\n\n    VV10 B              =     6.0000E+00\n    VV10 C              =     1.0000E-02\n\n   => Molecular Quadrature <=\n\n    Radial Scheme          =       TREUTLER\n    Pruning Scheme         =           NONE\n    Nuclear Scheme         =       TREUTLER\n\n    BS radius alpha        =              1\n    Pruning alpha          =              1\n    Radial Points          =             75\n    Spherical Points       =            302\n    Total Points           =         599224\n    Total Blocks           =           4347\n    Max Points             =            256\n    Max Functions          =            241\n    Weights Tolerance      =       1.00E-15\n\n   => Loading Basis Set <=\n\n    Name: (PCSEG-1 AUX)\n    Role: JKFIT\n    Keyword: DF_BASIS_SCF\n    atoms 1-9   entry C          line   198 file /home/ubuntu/pk/Applications/miniconda3/envs/psi4-1.4a2.dev923/share/psi4/basis/def2-universal-jkfit.gbs \n    atoms 10-17 entry N          line   258 file /home/ubuntu/pk/Applications/miniconda3/envs/psi4-1.4a2.dev923/share/psi4/basis/def2-universal-jkfit.gbs \n    atoms 18-19 entry O          line   318 file /home/ubuntu/pk/Applications/miniconda3/envs/psi4-1.4a2.dev923/share/psi4/basis/def2-universal-jkfit.gbs \n    atoms 20-29 entry H          line    18 file /home/ubuntu/pk/Applications/miniconda3/envs/psi4-1.4a2.dev923/share/psi4/basis/def2-universal-jkfit.gbs \n\n  ==> Integral Setup <==\n\n  DFHelper Memory: AOs need 0.909 GiB; user supplied 172.418 GiB. Using in-core AOs.\n\n  ==> MemDFJK: Density-Fitted J/K Matrices <==\n\n    J tasked:                   Yes\n    K tasked:                    No\n    wK tasked:                   No\n    OpenMP threads:              16\n    Memory [MiB]:            176555\n    Algorithm:                 Core\n    Schwarz Cutoff:           1E-12\n    Mask sparsity (%):      29.1019\n    Fitting Condition:        1E-10\n\n   => Auxiliary Basis Set <=\n\n  Basis Set: (PCSEG-1 AUX)\n    Blend: DEF2-UNIVERSAL-JKFIT\n    Number of shells: 535\n    Number of basis function: 1625\n    Number of Cartesian functions: 1931\n    Spherical Harmonics?: true\n    Max angular momentum: 4\n\n  Cached 100.0% of DFT collocation blocks in 6.396 [GiB].\n\n  Minimum eigenvalue in the overlap matrix is 8.9529786017E-04.\n  Reciprocal condition number of the overlap matrix is 1.4739409995E-04.\n    Using symmetric orthogonalization.\n\n  ==> Pre-Iterations <==\n\n  SCF Guess: Superposition of Atomic Densities via on-the-fly atomic UHF (no occupation information).\n\n   -------------------------\n    Irrep   Nso     Nmo    \n   -------------------------\n     A        316     316 \n   -------------------------\n    Total     316     316\n   -------------------------\n\n  ==> Iterations <==\n\n                           Total Energy        Delta E     RMS |[F,P]|\n\n   @DF-RKS iter SAD:  -936.74399055962499   -9.36744e+02   0.00000e+00 \n   @DF-RKS iter   1:  -936.17607445838701    5.67916e-01   4.72268e-03 DIIS\n   @DF-RKS iter   2:  -935.57106054246992    6.05014e-01   5.93894e-03 DIIS\n   @DF-RKS iter   3:  -937.09911736366610   -1.52806e+00   1.52558e-03 DIIS\n   @DF-RKS iter   4:  -937.20618296706516   -1.07066e-01   4.15278e-04 DIIS\n   @DF-RKS iter   5:  -937.21204070396368   -5.85774e-03   2.15388e-04 DIIS\n   @DF-RKS iter   6:  -937.21414751545376   -2.10681e-03   7.10678e-05 DIIS\n   @DF-RKS iter   7:  -937.21438492425330   -2.37409e-04   2.60875e-05 DIIS\n   @DF-RKS iter   8:  -937.21441259053461   -2.76663e-05   7.72628e-06 DIIS\n   @DF-RKS iter   9:  -937.21441483556259   -2.24503e-06   3.31954e-06 DIIS\n   @DF-RKS iter  10:  -937.21441527961792   -4.44055e-07   9.90160e-07 DIIS\n  Energy and wave function converged.\n\n\n  ==> Post-Iterations <==\n\n    Orbital Energies [Eh]\n    ---------------------\n\n    Doubly Occupied:                                                      \n\n       1A    -19.114763     2A    -19.093963     3A    -14.403253  \n       4A    -14.373463     5A    -14.353625     6A    -14.352647  \n       7A    -14.329553     8A    -14.328662     9A    -14.302810  \n      10A    -14.301841    11A    -10.320569    12A    -10.293344  \n      13A    -10.289474    14A    -10.274112    15A    -10.272472  \n      16A    -10.237719    17A    -10.226902    18A    -10.207886  \n      19A    -10.175528    20A     -1.059121    21A     -1.024962  \n      22A     -1.002462    23A     -0.983855    24A     -0.974470  \n      25A     -0.955207    26A     -0.884378    27A     -0.880410  \n      28A     -0.876472    29A     -0.854343    30A     -0.793322  \n      31A     -0.731240    32A     -0.668679    33A     -0.652896  \n      34A     -0.638746    35A     -0.619428    36A     -0.589957  \n      37A     -0.566506    38A     -0.557276    39A     -0.550383  \n      40A     -0.523667    41A     -0.505650    42A     -0.499539  \n      43A     -0.483269    44A     -0.469489    45A     -0.449310  \n      46A     -0.448565    47A     -0.444756    48A     -0.434509  \n      49A     -0.431814    50A     -0.417481    51A     -0.406222  \n      52A     -0.393415    53A     -0.386616    54A     -0.384206  \n      55A     -0.373197    56A     -0.348621    57A     -0.347055  \n      58A     -0.291829    59A     -0.275043    60A     -0.274450  \n      61A     -0.261972    62A     -0.251700    63A     -0.251064  \n      64A     -0.242893    65A     -0.239340    66A     -0.236501  \n      67A     -0.228407    68A     -0.176702  \n\n    Virtual:                                                              \n\n      69A     -0.080889    70A     -0.026596    71A     -0.018318  \n      72A     -0.005533    73A     -0.001006    74A      0.031437  \n      75A      0.031958    76A      0.041327    77A      0.049921  \n      78A      0.064698    79A      0.084773    80A      0.089557  \n      81A      0.091392    82A      0.131777    83A      0.140747  \n      84A      0.154596    85A      0.155930    86A      0.166076  \n      87A      0.179631    88A      0.194812    89A      0.197796  \n      90A      0.206675    91A      0.230693    92A      0.236490  \n      93A      0.249624    94A      0.255373    95A      0.273184  \n      96A      0.288357    97A      0.290949    98A      0.305482  \n      99A      0.306956   100A      0.337159   101A      0.350022  \n     102A      0.358480   103A      0.359247   104A      0.365801  \n     105A      0.384969   106A      0.389792   107A      0.396128  \n     108A      0.401159   109A      0.409475   110A      0.424806  \n     111A      0.441761   112A      0.448304   113A      0.450536  \n     114A      0.463748   115A      0.464312   116A      0.470132  \n     117A      0.474880   118A      0.479610   119A      0.482980  \n     120A      0.499603   121A      0.505626   122A      0.517375  \n     123A      0.534180   124A      0.536037   125A      0.537416  \n     126A      0.544682   127A      0.561230   128A      0.574464  \n     129A      0.578068   130A      0.607589   131A      0.615455  \n     132A      0.626489   133A      0.642279   134A      0.653282  \n     135A      0.660916   136A      0.665044   137A      0.679304  \n     138A      0.696867   139A      0.698827   140A      0.702326  \n     141A      0.717084   142A      0.720748   143A      0.727693  \n     144A      0.752599   145A      0.760912   146A      0.768583  \n     147A      0.775007   148A      0.781060   149A      0.801244  \n     150A      0.815709   151A      0.825915   152A      0.831565  \n     153A      0.846211   154A      0.851803   155A      0.868954  \n     156A      0.883921   157A      0.918329   158A      0.922832  \n     159A      0.929071   160A      0.939591   161A      0.964546  \n     162A      0.980471   163A      0.991227   164A      1.010386  \n     165A      1.025382   166A      1.028383   167A      1.060302  \n     168A      1.094070   169A      1.109751   170A      1.128523  \n     171A      1.168616   172A      1.174926   173A      1.193708  \n     174A      1.207555   175A      1.215675   176A      1.233140  \n     177A      1.235613   178A      1.250833   179A      1.269758  \n     180A      1.273051   181A      1.304348   182A      1.308992  \n     183A      1.320174   184A      1.327840   185A      1.341850  \n     186A      1.355318   187A      1.361477   188A      1.382499  \n     189A      1.388091   190A      1.397493   191A      1.415821  \n     192A      1.430452   193A      1.438542   194A      1.451739  \n     195A      1.472928   196A      1.482594   197A      1.499780  \n     198A      1.506528   199A      1.510936   200A      1.520088  \n     201A      1.533108   202A      1.582856   203A      1.616315  \n     204A      1.629634   205A      1.699303   206A      1.714030  \n     207A      1.723878   208A      1.730984   209A      1.771365  \n     210A      1.803496   211A      1.811469   212A      1.825843  \n     213A      1.833635   214A      1.854257   215A      1.865906  \n     216A      1.873578   217A      1.886723   218A      1.901239  \n     219A      1.903672   220A      1.917295   221A      1.930477  \n     222A      1.931356   223A      1.972370   224A      1.978325  \n     225A      1.983269   226A      2.002169   227A      2.011832  \n     228A      2.019034   229A      2.036819   230A      2.051207  \n     231A      2.061506   232A      2.070600   233A      2.072814  \n     234A      2.093846   235A      2.116224   236A      2.142325  \n     237A      2.166302   238A      2.184152   239A      2.193939  \n     240A      2.202534   241A      2.215931   242A      2.217818  \n     243A      2.232415   244A      2.255401   245A      2.257197  \n     246A      2.279648   247A      2.290052   248A      2.300651  \n     249A      2.310551   250A      2.318247   251A      2.346416  \n     252A      2.353441   253A      2.359201   254A      2.368548  \n     255A      2.373611   256A      2.393472   257A      2.401959  \n     258A      2.414785   259A      2.444957   260A      2.468319  \n     261A      2.472612   262A      2.476815   263A      2.487907  \n     264A      2.500542   265A      2.511555   266A      2.525361  \n     267A      2.555297   268A      2.580813   269A      2.584982  \n     270A      2.602317   271A      2.611792   272A      2.632995  \n     273A      2.651668   274A      2.656350   275A      2.674527  \n     276A      2.692318   277A      2.701917   278A      2.709733  \n     279A      2.726278   280A      2.739503   281A      2.753341  \n     282A      2.777331   283A      2.785688   284A      2.810772  \n     285A      2.825643   286A      2.838474   287A      2.855244  \n     288A      2.880639   289A      2.887733   290A      2.925204  \n     291A      2.926115   292A      2.963006   293A      3.021182  \n     294A      3.043410   295A      3.052559   296A      3.076806  \n     297A      3.096794   298A      3.123190   299A      3.156756  \n     300A      3.194331   301A      3.205447   302A      3.227842  \n     303A      3.292077   304A      3.337231   305A      3.358655  \n     306A      3.390900   307A      3.428918   308A      3.445080  \n     309A      3.468465   310A      3.500895   311A      3.550459  \n     312A      3.723739   313A      3.740834   314A      3.777694  \n     315A      3.810171   316A      3.865104  \n\n    Final Occupation by Irrep:\n              A \n    DOCC [    68 ]\n\n  @DF-RKS Final Energy:  -937.21441527961792\n\n   => Energetics <=\n\n    Nuclear Repulsion Energy =           1391.3946593646260226\n    One-Electron Energy =               -4038.6802397243814085\n    Two-Electron Energy =                1835.1304756479564730\n    DFT Exchange-Correlation Energy =    -125.5736295557157689\n    Empirical Dispersion Energy =           0.0000000000000000\n    VV10 Nonlocal Energy =                  0.5143189878967579\n    Total Energy =                       -937.2144152796179242\n\nComputation Completed\n\n\nProperties will be evaluated at   0.000000,   0.000000,   0.000000 [a0]\n\nProperties computed using the SCF density matrix\n\n  Nuclear Dipole Moment: [e a0]\n     X:    -7.3564      Y:    -0.9170      Z:    -0.2171\n\n  Electronic Dipole Moment: [e a0]\n     X:     4.9817      Y:     0.4155      Z:    -0.4402\n\n  Dipole Moment: [e a0]\n     X:    -2.3748      Y:    -0.5016      Z:    -0.6573     Total:     2.5146\n\n  Dipole Moment: [D]\n     X:    -6.0360      Y:    -1.2749      Z:    -1.6707     Total:     6.3914\n\n\n*** tstop() called on bignimbus at Sun Apr 25 00:09:42 2021\nModule time:\n\tuser time   =    1315.61 seconds =      21.93 minutes\n\tsystem time =      20.95 seconds =       0.35 minutes\n\ttotal time  =         89 seconds =       1.48 minutes\nTotal time:\n\tuser time   =    1315.61 seconds =      21.93 minutes\n\tsystem time =      20.95 seconds =       0.35 minutes\n\ttotal time  =         89 seconds =       1.48 minutes\n\n    Psi4 stopped on: Sunday, 25 April 2021 12:09AM\n    Psi4 wall time for execution: 0:01:29.36\n\n*** Psi4 exiting successfully. Buy a developer a beer!\n",
 "stderr": null,
 "success": true,
 "error": null,
 "tag": "b97m-v pcseg-1 c3gc_a"
}