{
 "id": null,
 "schema_name": "qcschema_output",
 "schema_version": 1,
 "molecule": {
  "validated": true,
  "symbols": [
   "C",
   "C",
   "C",
   "C",
   "C",
   "N",
   "N",
   "N",
   "N",
   "N",
   "H",
   "H",
   "H",
   "H",
   "H"
  ],
  "geometry": [
   -2.6005148446510584,
   0.057862058844925304,
   -0.05834799091184591,
   -0.18166540406503784,
   -1.0514071767988198,
   0.03991776761196013,
   1.8611285375548743,
   0.6342285271095628,
   0.08527119462294801,
   -0.6465380309276636,
   3.967705412417172,
   0.03235886311012896,
   3.108347780357041,
   -3.3625422282337434,
   0.004012971228262092,
   -2.7857080049459246,
   2.5976539714602467,
   -0.05267881253547342,
   1.7553038745292358,
   3.1645718090975947,
   0.09849927750115343,
   0.6309168298818281,
   -3.543955936277695,
   -0.011104837775400238,
   3.9719526196912684,
   -0.9002290867621937,
   0.08716092074840669,
   -4.769920436676645,
   -1.3273071911156626,
   -0.11126032242466495,
   -0.9092099623663019,
   6.004830175660711,
   0.01913078023192442,
   4.406589628546569,
   -4.938573816865572,
   -0.07157607379005133,
   5.787979426256241,
   -0.31630371399572466,
   -0.04700963415909916,
   -6.351621203684847,
   -0.38811330676312217,
   -0.6366041853019416,
   -4.6414190601455125,
   -3.160341532809756,
   -0.6403836375528572
  ],
  "name": "C5H5N5",
  "molecular_charge": 0.0,
  "molecular_multiplicity": 1,
  "masses": [
   12.0,
   12.0,
   12.0,
   12.0,
   12.0,
   14.00307400443,
   14.00307400443,
   14.00307400443,
   14.00307400443,
   14.00307400443,
   1.00782503223,
   1.00782503223,
   1.00782503223,
   1.00782503223,
   1.00782503223
  ],
  "real": [
   true,
   true,
   true,
   true,
   true,
   true,
   true,
   true,
   true,
   true,
   true,
   true,
   true,
   true,
   true
  ],
  "atom_labels": [
   "",
   "",
   "",
   "",
   "",
   "",
   "",
   "",
   "",
   "",
   "",
   "",
   "",
   "",
   ""
  ],
  "atomic_numbers": [
   6,
   6,
   6,
   6,
   6,
   7,
   7,
   7,
   7,
   7,
   1,
   1,
   1,
   1,
   1
  ],
  "mass_numbers": [
   12,
   12,
   12,
   12,
   12,
   14,
   14,
   14,
   14,
   14,
   1,
   1,
   1,
   1,
   1
  ],
  "fragments": [
   [
    0,
    1,
    2,
    3,
    4,
    5,
    6,
    7,
    8,
    9,
    10,
    11,
    12,
    13,
    14
   ]
  ],
  "fragment_charges": [
   0.0
  ],
  "fragment_multiplicities": [
   1
  ],
  "fix_com": false,
  "fix_orientation": false,
  "provenance": {
   "creator": "QCElemental",
   "version": "v0.19.0",
   "routine": "qcelemental.molparse.from_string"
  }
 },
 "driver": "energy",
 "model": {
  "method": "dsd-pbep86-nl",
  "basis": "pcseg-2"
 },
 "keywords": {
  "guess": "SAP",
  "freeze_core": "true",
  "dft_vv10_postscf": "true"
 },
 "protocols": {},
 "extras": {
  "qcvars": {
   "CURRENT DIPOLE X": 1.7267236205977259,
   "CURRENT DIPOLE Y": -1.86139528721039,
   "CURRENT DIPOLE Z": -0.9790779662918591,
   "CURRENT ENERGY": -466.54049603627277,
   "CURRENT REFERENCE ENERGY": -465.6695319384211,
   "DFT FUNCTIONAL TOTAL ENERGY": -465.669531938421,
   "DFT TOTAL ENERGY": -466.54049603627277,
   "DFT VV10 ENERGY": 0.09387570001696639,
   "DFT XC ENERGY": -19.946225816306274,
   "DOUBLE-HYBRID CORRECTION ENERGY": -0.8709640978517257,
   "DSD-PBEP86-NL DOUBLE-HYBRID CORRECTION ENERGY": -0.8709640978517257,
   "DSD-PBEP86-NL TOTAL ENERGY": -466.54049603627277,
   "NUCLEAR REPULSION ENERGY": 501.22359390313767,
   "ONE-ELECTRON ENERGY": -1625.823318268575,
   "PCM POLARIZATION ENERGY": 0.0,
   "PE ENERGY": 0.0,
   "SCF DIPOLE X": 1.7267236205977259,
   "SCF DIPOLE Y": -1.86139528721039,
   "SCF DIPOLE Z": -0.9790779662918591,
   "SCF ITERATION ENERGY": -465.76352750069225,
   "SCF ITERATIONS": 11.0,
   "SCF TOTAL ENERGY": -465.6695319384211,
   "TWO-ELECTRON ENERGY": 678.7825425433055,
   "XC GRID RADIAL POINTS": 75.0,
   "XC GRID SPHERICAL POINTS": 302.0,
   "XC GRID TOTAL POINTS": 316064.0,
   "CURRENT DIPOLE": [
    0.6793453451308444,
    -0.7323292556669478,
    -0.38519891138704926
   ],
   "SCF DIPOLE": [
    0.6793453451308444,
    -0.7323292556669478,
    -0.38519891138704926
   ]
  }
 },
 "provenance": {
  "creator": "Psi4",
  "version": "1.4a2.dev923",
  "routine": "psi4.schema_runner.run_qcschema",
  "qcengine_version": "v0.16.0",
  "nthreads": 24,
  "username": "kraus",
  "cpu": "Intel(R) Xeon(R) CPU E5-2680 v4 @ 2.40GHz",
  "wall_time": 22.602211952209473,
  "hostname": "z068",
  "memory": 120.0
 },
 "properties": {
  "calcinfo_nbasis": 370,
  "calcinfo_nmo": 370,
  "calcinfo_nalpha": 35,
  "calcinfo_nbeta": 35,
  "calcinfo_natom": 15,
  "nuclear_repulsion_energy": 501.22359390313767,
  "return_energy": -466.54049603627277,
  "scf_one_electron_energy": -1625.823318268575,
  "scf_two_electron_energy": 678.7825425433055,
  "scf_vv10_energy": 0.09387570001696639,
  "scf_xc_energy": -19.946225816306274,
  "scf_dipole_moment": [
   0.6793453451308444,
   -0.7323292556669478,
   -0.38519891138704926
  ],
  "scf_total_energy": -465.6695319384211,
  "scf_iterations": 11
 },
 "wavefunction": null,
 "return_result": -466.54049603627277,
 "stdout": "\n    -----------------------------------------------------------------------\n          Psi4: An Open-Source Ab Initio Electronic Structure Package\n                               Psi4 1.4a2.dev923 \n\n                         Git: Rev {master} 5de566e \n\n\n    D. G. A. Smith, L. A. Burns, A. C. Simmonett, R. M. Parrish,\n    M. C. Schieber, R. Galvelis, P. Kraus, H. Kruse, R. Di Remigio,\n    A. Alenaizan, A. M. James, S. Lehtola, J. P. Misiewicz, M. Scheurer,\n    R. A. Shaw, J. B. Schriber, Y. Xie, Z. L. Glick, D. A. Sirianni,\n    J. S. O'Brien, J. M. Waldrop, A. Kumar, E. G. Hohenstein,\n    B. P. Pritchard, B. R. Brooks, H. F. Schaefer III, A. Yu. Sokolov,\n    K. Patkowski, A. E. DePrince III, U. Bozkaya, R. A. King,\n    F. A. Evangelista, J. M. Turney, T. D. Crawford, C. D. Sherrill,\n    J. Chem. Phys. 152(18) 184108 (2020). https://doi.org/10.1063/5.0006002\n\n                            Additional Code Authors\n    E. T. Seidl, C. L. Janssen, E. F. Valeev, M. L. Leininger,\n    J. F. Gonthier, R. M. Richard, H. R. McAlexander, M. Saitow, X. Wang,\n    P. Verma, and M. H. Lechner\n\n             Previous Authors, Complete List of Code Contributors,\n                       and Citations for Specific Modules\n    https://github.com/psi4/psi4/blob/master/codemeta.json\n    https://github.com/psi4/psi4/graphs/contributors\n    http://psicode.org/psi4manual/master/introduction.html#citing-psifour\n\n    -----------------------------------------------------------------------\n\n\n    Psi4 started on: Monday, 17 May 2021 03:45PM\n\n    Process ID: 5855\n    Host:       z068\n    PSIDATADIR: /group/f97/kraus/miniconda3/envs/psi4-1.4a2.dev923/share/psi4\n    Memory:     111.8 GiB\n    Threads:    24\n    \n  ==> Input QCSchema <==\n\n--------------------------------------------------------------------------\n{'driver': 'energy',\n 'extras': {},\n 'id': None,\n 'keywords': {'dft_vv10_postscf': 'true', 'freeze_core': 'true', 'guess': 'SAP'},\n 'model': {'basis': 'pcseg-2', 'method': 'dsd-pbep86-nl'},\n 'molecule': {'atom_labels': ['', '', '', '', '', '', '', '', '', '', '', '', '', '', ''],\n              'atomic_numbers': [6, 6, 6, 6, 6, 7, 7, 7, 7, 7, 1, 1, 1, 1, 1],\n              'fix_com': False,\n              'fix_orientation': False,\n              'fragment_charges': [0.0],\n              'fragment_multiplicities': [1],\n              'fragments': [[0, 1, 2, 3, 4, 5, 6, 7, 8, 9, 10, 11, 12, 13, 14]],\n              'geometry': [-2.600514844651058, 0.0578620588449254, -0.05834799091184806, -0.1816654040650374,\n                           -1.0514071767988198, 0.03991776761195798, 1.8611285375548747, 0.6342285271095629,\n                           0.08527119462294586, -0.6465380309276632, 3.967705412417172, 0.03235886311012681,\n                           3.1083477803570414, -3.3625422282337434, 0.004012971228259943, -2.785708004945924,\n                           2.5976539714602467, -0.05267881253547557, 1.7553038745292362, 3.1645718090975947,\n                           0.09849927750115128, 0.6309168298818285, -3.543955936277695, -0.011104837775402387,\n                           3.971952619691269, -0.9002290867621936, 0.08716092074840454, -4.769920436676644,\n                           -1.3273071911156626, -0.1112603224246671, -0.9092099623663015, 6.004830175660711,\n                           0.019130780231922273, 4.40658962854657, -4.938573816865572, -0.07157607379005348,\n                           5.787979426256242, -0.31630371399572454, -0.04700963415910131, -6.3516212036848465,\n                           -0.38811330676312206, -0.6366041853019437, -4.641419060145512, -3.160341532809756,\n                           -0.6403836375528593],\n              'mass_numbers': [12, 12, 12, 12, 12, 14, 14, 14, 14, 14, 1, 1, 1, 1, 1],\n              'masses': [12.0, 12.0, 12.0, 12.0, 12.0, 14.00307400443, 14.00307400443, 14.00307400443, 14.00307400443,\n                         14.00307400443, 1.00782503223, 1.00782503223, 1.00782503223, 1.00782503223, 1.00782503223],\n              'molecular_charge': 0.0,\n              'molecular_multiplicity': 1,\n              'name': 'C5H5N5',\n              'provenance': {'creator': 'QCElemental',\n                             'routine': 'qcelemental.molparse.from_string',\n                             'version': 'v0.19.0'},\n              'real': [True, True, True, True, True, True, True, True, True, True, True, True, True, True, True],\n              'symbols': ['C', 'C', 'C', 'C', 'C', 'N', 'N', 'N', 'N', 'N', 'H', 'H', 'H', 'H', 'H'],\n              'validated': True},\n 'protocols': {},\n 'provenance': {'creator': 'QCElemental', 'routine': 'qcelemental.models.results', 'version': 'v0.16.0'},\n 'schema_name': 'qcschema_input',\n 'schema_version': 1}\n--------------------------------------------------------------------------\n\nScratch directory: /scratch/f97/kraus/scratch/tmptlsl4qyt_psi_scratch/\n\n*** tstart() called on z068\n*** at Mon May 17 15:45:04 2021\n\n   => Loading Basis Set <=\n\n    Name: PCSEG-2\n    Role: ORBITAL\n    Keyword: BASIS\n    atoms 1-5   entry C          line   129 file /group/f97/kraus/miniconda3/envs/psi4-1.4a2.dev923/share/psi4/basis/pcseg-2.gbs \n    atoms 6-10  entry N          line   161 file /group/f97/kraus/miniconda3/envs/psi4-1.4a2.dev923/share/psi4/basis/pcseg-2.gbs \n    atoms 11-15 entry H          line    13 file /group/f97/kraus/miniconda3/envs/psi4-1.4a2.dev923/share/psi4/basis/pcseg-2.gbs \n\n   => DSD-PBEP86-NL: Empirical Dispersion <=\n\n    Grimme's -NL (DFT plus VV10 correlation) \n    Hujo, W.; Grimme, S; (2011), J. Chem. Theory Comput.; 7:3866\n    Parametrisation from:    M. K. Kesharwani, A. Karton, J.M. L. Martin, J. Chem. Theory Comput. 12, 444-454, 2016\n\n         b =      12.800000\n         c =       0.009300\n\n\n         ---------------------------------------------------------\n                                   SCF\n               by Justin Turney, Rob Parrish, Andy Simmonett\n                          and Daniel G. A. Smith\n                              RKS Reference\n                       24 Threads, 114440 MiB Core\n         ---------------------------------------------------------\n\n  ==> Geometry <==\n\n    Molecular point group: c1\n    Full point group: C1\n\n    Geometry (in Bohr), charge = 0, multiplicity = 1:\n\n       Center              X                  Y                   Z               Mass       \n    ------------   -----------------  -----------------  -----------------  -----------------\n         C           -2.600514844651     0.057862058845    -0.058347990912    12.000000000000\n         C           -0.181665404065    -1.051407176799     0.039917767612    12.000000000000\n         C            1.861128537555     0.634228527110     0.085271194623    12.000000000000\n         C           -0.646538030928     3.967705412417     0.032358863110    12.000000000000\n         C            3.108347780357    -3.362542228234     0.004012971228    12.000000000000\n         N           -2.785708004946     2.597653971460    -0.052678812535    14.003074004430\n         N            1.755303874529     3.164571809098     0.098499277501    14.003074004430\n         N            0.630916829882    -3.543955936278    -0.011104837775    14.003074004430\n         N            3.971952619691    -0.900229086762     0.087160920748    14.003074004430\n         N           -4.769920436677    -1.327307191116    -0.111260322425    14.003074004430\n         H           -0.909209962366     6.004830175661     0.019130780232     1.007825032230\n         H            4.406589628547    -4.938573816866    -0.071576073790     1.007825032230\n         H            5.787979426256    -0.316303713996    -0.047009634159     1.007825032230\n         H           -6.351621203685    -0.388113306763    -0.636604185302     1.007825032230\n         H           -4.641419060146    -3.160341532810    -0.640383637553     1.007825032230\n\n  Running in c1 symmetry.\n\n  Rotational constants: A =      0.07881  B =      0.05206  C =      0.03137 [cm^-1]\n  Rotational constants: A =   2362.65971  B =   1560.84141  C =    940.48329 [MHz]\n  Nuclear repulsion =  501.223593903137669\n\n  Charge       = 0\n  Multiplicity = 1\n  Electrons    = 70\n  Nalpha       = 35\n  Nbeta        = 35\n\n  ==> Algorithm <==\n\n  SCF Algorithm Type is DF.\n  DIIS enabled.\n  MOM disabled.\n  Fractional occupation disabled.\n  Guess Type is SAP.\n  Energy threshold   = 1.00e-06\n  Density threshold  = 1.00e-06\n  Integral threshold = 0.00e+00\n\n  ==> Primary Basis <==\n\n  Basis Set: PCSEG-2\n    Blend: PCSEG-2\n    Number of shells: 130\n    Number of basis function: 370\n    Number of Cartesian functions: 425\n    Spherical Harmonics?: true\n    Max angular momentum: 3\n\n  ==> DFT Potential <==\n\n   => Composite Functional: DSD-PBEP86-NL <= \n\n    DSD-PBEP86-NL (D3BJ parameters) VV10 SCS Double Hybrid XC Functional\n\n    S. Kozuch, J.M.L. Martin, J. Comp. Chem., 34, 2327-2344, 2013\n\n\n    Deriv               =              1\n    GGA                 =           TRUE\n    Meta                =          FALSE\n\n    Exchange Hybrid     =           TRUE\n    MP2 Hybrid          =           TRUE\n\n   => Exchange Functionals <=\n\n    0.3100     XC_GGA_X_PBE\n\n   => Exact (HF) Exchange <=\n\n    0.6900               HF \n\n   => Correlation Functionals <=\n\n    0.4400     XC_GGA_C_P86\n\n   => MP2 Correlation <=\n\n    MP2 SCS Hybrid      =           TRUE\n    MP2 OS Alpha        =       0.520000\n    MP2 SS Alpha        =       0.220000\n\n   => LibXC Density Thresholds  <==\n\n    XC_GGA_C_P86:  1.00E-25 \n    XC_GGA_X_PBE:  1.00E-32 \n\n   => VV10 Non-Local Parameters <=\n\n    VV10 B              =     1.2800E+01\n    VV10 C              =     9.3000E-03\n\n   => Molecular Quadrature <=\n\n    Radial Scheme          =       TREUTLER\n    Pruning Scheme         =           NONE\n    Nuclear Scheme         =       TREUTLER\n\n    BS radius alpha        =              1\n    Pruning alpha          =              1\n    Radial Points          =             75\n    Spherical Points       =            302\n    Total Points           =         316063\n    Total Blocks           =           2363\n    Max Points             =            256\n    Max Functions          =            337\n    Weights Tolerance      =       1.00E-15\n\n   => Loading Basis Set <=\n\n    Name: (PCSEG-2 AUX)\n    Role: JKFIT\n    Keyword: DF_BASIS_SCF\n    atoms 1-5   entry C          line   198 file /group/f97/kraus/miniconda3/envs/psi4-1.4a2.dev923/share/psi4/basis/def2-universal-jkfit.gbs \n    atoms 6-10  entry N          line   258 file /group/f97/kraus/miniconda3/envs/psi4-1.4a2.dev923/share/psi4/basis/def2-universal-jkfit.gbs \n    atoms 11-15 entry H          line    18 file /group/f97/kraus/miniconda3/envs/psi4-1.4a2.dev923/share/psi4/basis/def2-universal-jkfit.gbs \n\n  ==> Integral Setup <==\n\n  DFHelper Memory: AOs need 0.834 GiB; user supplied 81.689 GiB. Using in-core AOs.\n\n  ==> MemDFJK: Density-Fitted J/K Matrices <==\n\n    J tasked:                   Yes\n    K tasked:                   Yes\n    wK tasked:                   No\n    OpenMP threads:              24\n    Memory [MiB]:             83649\n    Algorithm:                 Core\n    Schwarz Cutoff:           1E-12\n    Mask sparsity (%):      10.3828\n    Fitting Condition:        1E-10\n\n   => Auxiliary Basis Set <=\n\n  Basis Set: (PCSEG-2 AUX)\n    Blend: DEF2-UNIVERSAL-JKFIT\n    Number of shells: 280\n    Number of basis function: 850\n    Number of Cartesian functions: 1010\n    Spherical Harmonics?: true\n    Max angular momentum: 4\n\n  Cached 100.0% of DFT collocation blocks in 2.130 [GiB].\n\n  Minimum eigenvalue in the overlap matrix is 5.7667941850E-05.\n  Reciprocal condition number of the overlap matrix is 5.5752892124E-06.\n    Using symmetric orthogonalization.\n\n  ==> Pre-Iterations <==\n\n  SCF Guess: Superposition of Atomic Potentials (doi:10.1021/acs.jctc.8b01089).\n\n  ==> SAP guess <==\n\n   => Molecular Quadrature <=\n\n    Radial Scheme          =       TREUTLER\n    Pruning Scheme         =           NONE\n    Nuclear Scheme         =       TREUTLER\n\n    BS radius alpha        =              1\n    Pruning alpha          =              1\n    Radial Points          =             75\n    Spherical Points       =            302\n    Total Points           =         316064\n    Total Blocks           =           2364\n    Max Points             =            256\n    Max Functions          =            337\n    Weights Tolerance      =       1.00E-15\n\n   -------------------------------------------------------\n    Irrep   Nso     Nmo     Nalpha   Nbeta   Ndocc  Nsocc\n   -------------------------------------------------------\n     A        370     370      35      35      35       0\n   -------------------------------------------------------\n    Total     370     370      35      35      35       0\n   -------------------------------------------------------\n\n  VV10: post-SCF option active \n \n  ==> Iterations <==\n\n                           Total Energy        Delta E     RMS |[F,P]|\n\n   @DF-RKS iter   1:  -462.50897880783134   -4.62509e+02   6.92625e-03 DIIS\n   @DF-RKS iter   2:  -454.20338350449822    8.30560e+00   1.02285e-02 DIIS\n   @DF-RKS iter   3:  -465.11218383822569   -1.09088e+01   3.03906e-03 DIIS\n   @DF-RKS iter   4:  -465.68768425321070   -5.75500e-01   1.04988e-03 DIIS\n   @DF-RKS iter   5:  -465.75581514262007   -6.81309e-02   3.28962e-04 DIIS\n   @DF-RKS iter   6:  -465.76215408633533   -6.33894e-03   1.40482e-04 DIIS\n   @DF-RKS iter   7:  -465.76346308546471   -1.30900e-03   2.42658e-05 DIIS\n   @DF-RKS iter   8:  -465.76350941814485   -4.63327e-05   1.39319e-05 DIIS\n   @DF-RKS iter   9:  -465.76352480237142   -1.53842e-05   4.71768e-06 DIIS\n   @DF-RKS iter  10:  -465.76352717441927   -2.37205e-06   1.54532e-06 DIIS\n   @DF-RKS iter  11:  -465.76352750069225   -3.26273e-07   5.45628e-07 DIIS\n  Energy and wave function converged.\n\n  ==> Computing Non-Self-Consistent VV10 Energy Correction <==\n\n\n  ==> Post-Iterations <==\n\n    Orbital Energies [Eh]\n    ---------------------\n\n    Doubly Occupied:                                                      \n\n       1A    -15.146601     2A    -15.097709     3A    -15.084475  \n       4A    -15.074974     5A    -15.068338     6A    -10.918107  \n       7A    -10.906979     8A    -10.901060     9A    -10.890546  \n      10A    -10.844612    11A     -1.245269    12A     -1.181181  \n      13A     -1.132043    14A     -1.077780    15A     -1.044354  \n      16A     -0.937034    17A     -0.813203    18A     -0.795870  \n      19A     -0.767830    20A     -0.707342    21A     -0.669001  \n      22A     -0.631399    23A     -0.612454    24A     -0.579783  \n      25A     -0.571658    26A     -0.551901    27A     -0.530638  \n      28A     -0.505264    29A     -0.451800    30A     -0.435427  \n      31A     -0.394664    32A     -0.383986    33A     -0.356657  \n      34A     -0.340263    35A     -0.286524  \n\n    Virtual:                                                              \n\n      36A      0.046305    37A      0.059114    38A      0.075116  \n      39A      0.080031    40A      0.096271    41A      0.104178  \n      42A      0.113733    43A      0.125082    44A      0.145677  \n      45A      0.180720    46A      0.198688    47A      0.201193  \n      48A      0.208274    49A      0.224266    50A      0.235837  \n      51A      0.254488    52A      0.272957    53A      0.283408  \n      54A      0.297713    55A      0.302244    56A      0.310009  \n      57A      0.316348    58A      0.336539    59A      0.346523  \n      60A      0.350225    61A      0.354877    62A      0.361847  \n      63A      0.373726    64A      0.386606    65A      0.403366  \n      66A      0.412591    67A      0.417170    68A      0.424798  \n      69A      0.430090    70A      0.453618    71A      0.457167  \n      72A      0.460260    73A      0.479392    74A      0.489069  \n      75A      0.494752    76A      0.513809    77A      0.520268  \n      78A      0.527186    79A      0.528408    80A      0.535688  \n      81A      0.554595    82A      0.572344    83A      0.599775  \n      84A      0.602047    85A      0.611166    86A      0.629449  \n      87A      0.651875    88A      0.662013    89A      0.670726  \n      90A      0.695650    91A      0.707996    92A      0.715445  \n      93A      0.743425    94A      0.753737    95A      0.775730  \n      96A      0.778149    97A      0.803890    98A      0.812130  \n      99A      0.830872   100A      0.844874   101A      0.860536  \n     102A      0.875044   103A      0.936500   104A      0.966726  \n     105A      0.993632   106A      1.006833   107A      1.025682  \n     108A      1.036185   109A      1.082332   110A      1.088269  \n     111A      1.117588   112A      1.127972   113A      1.162083  \n     114A      1.175741   115A      1.186290   116A      1.198518  \n     117A      1.210148   118A      1.225685   119A      1.266632  \n     120A      1.283391   121A      1.294954   122A      1.301639  \n     123A      1.317911   124A      1.364023   125A      1.375454  \n     126A      1.396603   127A      1.429297   128A      1.432227  \n     129A      1.454086   130A      1.472154   131A      1.482076  \n     132A      1.493329   133A      1.504016   134A      1.508931  \n     135A      1.524218   136A      1.540299   137A      1.557219  \n     138A      1.566398   139A      1.592053   140A      1.615427  \n     141A      1.627615   142A      1.635556   143A      1.660459  \n     144A      1.670364   145A      1.702565   146A      1.717964  \n     147A      1.732479   148A      1.759400   149A      1.778484  \n     150A      1.789023   151A      1.800492   152A      1.819108  \n     153A      1.835302   154A      1.866602   155A      1.877801  \n     156A      1.887871   157A      1.894978   158A      1.909802  \n     159A      1.928469   160A      1.949937   161A      1.959176  \n     162A      1.985504   163A      2.002742   164A      2.018115  \n     165A      2.044127   166A      2.047867   167A      2.081438  \n     168A      2.111361   169A      2.124335   170A      2.137835  \n     171A      2.169395   172A      2.199660   173A      2.218104  \n     174A      2.241162   175A      2.259067   176A      2.283783  \n     177A      2.302227   178A      2.310712   179A      2.334712  \n     180A      2.389924   181A      2.396926   182A      2.413385  \n     183A      2.440814   184A      2.467537   185A      2.509825  \n     186A      2.520342   187A      2.531051   188A      2.601368  \n     189A      2.665464   190A      2.668143   191A      2.742713  \n     192A      2.763306   193A      2.916943   194A      2.985503  \n     195A      3.018198   196A      3.049454   197A      3.085832  \n     198A      3.133036   199A      3.163488   200A      3.165617  \n     201A      3.189113   202A      3.220084   203A      3.265042  \n     204A      3.298782   205A      3.334673   206A      3.355612  \n     207A      3.368691   208A      3.403564   209A      3.447380  \n     210A      3.475781   211A      3.489871   212A      3.502884  \n     213A      3.539718   214A      3.549910   215A      3.573562  \n     216A      3.593328   217A      3.625981   218A      3.639618  \n     219A      3.659003   220A      3.674676   221A      3.694671  \n     222A      3.697339   223A      3.758517   224A      3.776967  \n     225A      3.786201   226A      3.823417   227A      3.845708  \n     228A      3.875159   229A      3.909426   230A      3.918515  \n     231A      3.952834   232A      3.962975   233A      3.984500  \n     234A      3.992803   235A      4.008215   236A      4.030089  \n     237A      4.055948   238A      4.087686   239A      4.107807  \n     240A      4.119317   241A      4.153390   242A      4.165274  \n     243A      4.173551   244A      4.196549   245A      4.208941  \n     246A      4.239202   247A      4.250463   248A      4.277084  \n     249A      4.289131   250A      4.299662   251A      4.344819  \n     252A      4.353667   253A      4.380238   254A      4.393647  \n     255A      4.398299   256A      4.410171   257A      4.414611  \n     258A      4.434555   259A      4.443689   260A      4.463962  \n     261A      4.483194   262A      4.488665   263A      4.500175  \n     264A      4.517917   265A      4.521284   266A      4.538366  \n     267A      4.565623   268A      4.578820   269A      4.592167  \n     270A      4.612888   271A      4.623254   272A      4.628114  \n     273A      4.639417   274A      4.659770   275A      4.672410  \n     276A      4.695731   277A      4.698087   278A      4.716435  \n     279A      4.730222   280A      4.738808   281A      4.752725  \n     282A      4.774011   283A      4.791246   284A      4.834584  \n     285A      4.837955   286A      4.878324   287A      4.912312  \n     288A      4.950476   289A      4.957163   290A      4.972129  \n     291A      4.994387   292A      5.014592   293A      5.037410  \n     294A      5.055218   295A      5.096301   296A      5.121539  \n     297A      5.146761   298A      5.177216   299A      5.186217  \n     300A      5.203946   301A      5.212362   302A      5.236696  \n     303A      5.256884   304A      5.301567   305A      5.313898  \n     306A      5.343023   307A      5.376967   308A      5.391937  \n     309A      5.415405   310A      5.441993   311A      5.456275  \n     312A      5.466469   313A      5.511363   314A      5.516980  \n     315A      5.534371   316A      5.557351   317A      5.578148  \n     318A      5.585792   319A      5.598928   320A      5.643026  \n     321A      5.644772   322A      5.688605   323A      5.699731  \n     324A      5.711853   325A      5.732681   326A      5.740447  \n     327A      5.746035   328A      5.773571   329A      5.776383  \n     330A      5.784095   331A      5.790091   332A      5.814957  \n     333A      5.832853   334A      5.883363   335A      5.892572  \n     336A      5.925880   337A      5.947517   338A      5.999721  \n     339A      6.019682   340A      6.036526   341A      6.072720  \n     342A      6.120963   343A      6.134892   344A      6.172210  \n     345A      6.176455   346A      6.201950   347A      6.215104  \n     348A      6.265177   349A      6.317971   350A      6.342118  \n     351A      6.392072   352A      6.414124   353A      6.492348  \n     354A      6.543094   355A      6.575999   356A      6.626826  \n     357A      6.635671   358A      6.765590   359A      6.779222  \n     360A      6.814205   361A      6.875045   362A      6.954519  \n     363A      6.998149   364A      7.089396   365A      7.148218  \n     366A      7.190542   367A      7.330733   368A      7.474632  \n     369A      8.460252   370A     10.055539  \n\n    Final Occupation by Irrep:\n              A \n    DOCC [    35 ]\n\n  @DF-RKS Final Energy:  -465.66953193842107\n\n   => Energetics <=\n\n    Nuclear Repulsion Energy =            501.2235939031376688\n    One-Electron Energy =               -1625.8233182685748943\n    Two-Electron Energy =                 678.7825425433054534\n    DFT Exchange-Correlation Energy =     -19.9462258163062742\n    Empirical Dispersion Energy =           0.0000000000000000\n    VV10 Nonlocal Energy =                  0.0938757000169664\n    Total Energy =                       -465.6695319384210165\n\nComputation Completed\n\n\nProperties will be evaluated at   0.000000,   0.000000,   0.000000 [a0]\n\nProperties computed using the SCF density matrix\n\n  Nuclear Dipole Moment: [e a0]\n     X:    -0.8453      Y:    -1.3883      Z:    -0.6829\n\n  Electronic Dipole Moment: [e a0]\n     X:     1.5247      Y:     0.6560      Z:     0.2977\n\n  Dipole Moment: [e a0]\n     X:     0.6793      Y:    -0.7323      Z:    -0.3852     Total:     1.0706\n\n  Dipole Moment: [D]\n     X:     1.7267      Y:    -1.8614      Z:    -0.9791     Total:     2.7212\n\n\n*** tstop() called on z068 at Mon May 17 15:45:15 2021\nModule time:\n\tuser time   =     213.15 seconds =       3.55 minutes\n\tsystem time =      11.53 seconds =       0.19 minutes\n\ttotal time  =         11 seconds =       0.18 minutes\nTotal time:\n\tuser time   =     213.15 seconds =       3.55 minutes\n\tsystem time =      11.53 seconds =       0.19 minutes\n\ttotal time  =         11 seconds =       0.18 minutes\n\n*** tstart() called on z068\n*** at Mon May 17 15:45:15 2021\n\n   => Loading Basis Set <=\n\n    Name: (PCSEG-2 AUX)\n    Role: RIFIT\n    Keyword: DF_BASIS_MP2\n    atoms 1-5   entry C          line   191 file /group/f97/kraus/miniconda3/envs/psi4-1.4a2.dev923/share/psi4/basis/def2-tzvpp-ri.gbs \n    atoms 6-10  entry N          line   238 file /group/f97/kraus/miniconda3/envs/psi4-1.4a2.dev923/share/psi4/basis/def2-tzvpp-ri.gbs \n    atoms 11-15 entry H          line    22 file /group/f97/kraus/miniconda3/envs/psi4-1.4a2.dev923/share/psi4/basis/def2-tzvpp-ri.gbs \n\n\t --------------------------------------------------------\n\t                          DF-MP2                         \n\t      2nd-Order Density-Fitted Moller-Plesset Theory     \n\t              RMP2 Wavefunction,  24 Threads             \n\t                                                         \n\t        Rob Parrish, Justin Turney, Andy Simmonett,      \n\t           Ed Hohenstein, and C. David Sherrill          \n\t --------------------------------------------------------\n\n   => Auxiliary Basis Set <=\n\n  Basis Set: (PCSEG-2 AUX)\n    Blend: DEF2-TZVPP-RI\n    Number of shells: 270\n    Number of basis function: 910\n    Number of Cartesian functions: 1125\n    Spherical Harmonics?: true\n    Max angular momentum: 4\n\n\t --------------------------------------------------------\n\t                 NBF =   370, NAUX =   910\n\t --------------------------------------------------------\n\t   CLASS    FOCC     OCC    AOCC    AVIR     VIR    FVIR\n\t   PAIRS      10      35      25     335     335       0\n\t --------------------------------------------------------\n\n\t-----------------------------------------------------------\n\t ==================> DF-MP2 Energies <==================== \n\t-----------------------------------------------------------\n\t Reference Energy          =    -465.6695319384210734 [Eh]\n\t Singles Energy            =      -0.0000000000000000 [Eh]\n\t Same-Spin Energy          =      -0.5354216811171335 [Eh]\n\t Opposite-Spin Energy      =      -1.4484064000114545 [Eh]\n\t Correlation Energy        =      -1.9838280811285880 [Eh]\n\t Total Energy              =    -467.6533600195496660 [Eh]\n\t-----------------------------------------------------------\n\t ================> DF-SCS-MP2 Energies <================== \n\t-----------------------------------------------------------\n\t SCS Same-Spin Scale       =       0.2200000000000000 [-]\n\t SCS Opposite-Spin Scale   =       0.5200000000000000 [-]\n\t SCS Same-Spin Energy      =      -0.1177927698457694 [Eh]\n\t SCS Opposite-Spin Energy  =      -0.7531713280059563 [Eh]\n\t SCS Correlation Energy    =      -1.9165615737194563 [Eh]\n\t SCS Total Energy          =    -467.5860935121405078 [Eh]\n\t-----------------------------------------------------------\n\n\n\n    DSD-PBEP86-NL Energy Summary\n    ----------------------------\n    DFT Reference Energy                  =  -465.6695319384210734\n    Scaled MP2 Correlation                =    -0.8709640978517257\n    @Final double-hybrid DFT total energy =  -466.5404960362727707\n\n\n*** tstop() called on z068 at Mon May 17 15:45:18 2021\nModule time:\n\tuser time   =      37.95 seconds =       0.63 minutes\n\tsystem time =       1.93 seconds =       0.03 minutes\n\ttotal time  =          3 seconds =       0.05 minutes\nTotal time:\n\tuser time   =     251.11 seconds =       4.19 minutes\n\tsystem time =      13.47 seconds =       0.22 minutes\n\ttotal time  =         14 seconds =       0.23 minutes\n\n    Psi4 stopped on: Monday, 17 May 2021 03:45PM\n    Psi4 wall time for execution: 0:00:14.88\n\n*** Psi4 exiting successfully. Buy a developer a beer!\n",
 "stderr": null,
 "success": true,
 "error": null,
 "tag": "dsd-pbep86-nl pcseg-2 c3a_a"
}