{
 "id": null,
 "schema_name": "qcschema_output",
 "schema_version": 1,
 "molecule": {
  "validated": true,
  "symbols": [
   "C",
   "C",
   "C",
   "C",
   "C",
   "N",
   "N",
   "N",
   "N",
   "N",
   "H",
   "H",
   "H",
   "H",
   "H"
  ],
  "geometry": [
   -2.6005148446510584,
   0.05786205884492528,
   -0.05834799091184591,
   -0.1816654040650379,
   -1.05140717679882,
   0.03991776761196013,
   1.8611285375548743,
   0.6342285271095628,
   0.08527119462294801,
   -0.6465380309276636,
   3.967705412417172,
   0.03235886311012896,
   3.108347780357041,
   -3.3625422282337434,
   0.004012971228262096,
   -2.7857080049459246,
   2.5976539714602467,
   -0.05267881253547342,
   1.7553038745292358,
   3.1645718090975947,
   0.09849927750115343,
   0.6309168298818281,
   -3.543955936277695,
   -0.011104837775400235,
   3.9719526196912684,
   -0.9002290867621937,
   0.08716092074840669,
   -4.769920436676645,
   -1.3273071911156629,
   -0.11126032242466495,
   -0.9092099623663019,
   6.004830175660711,
   0.019130780231924428,
   4.406589628546569,
   -4.938573816865572,
   -0.07157607379005133,
   5.787979426256241,
   -0.31630371399572466,
   -0.04700963415909916,
   -6.351621203684847,
   -0.38811330676312217,
   -0.6366041853019416,
   -4.6414190601455125,
   -3.160341532809756,
   -0.6403836375528572
  ],
  "name": "C5H5N5",
  "molecular_charge": 0.0,
  "molecular_multiplicity": 1,
  "masses": [
   12.0,
   12.0,
   12.0,
   12.0,
   12.0,
   14.00307400443,
   14.00307400443,
   14.00307400443,
   14.00307400443,
   14.00307400443,
   1.00782503223,
   1.00782503223,
   1.00782503223,
   1.00782503223,
   1.00782503223
  ],
  "real": [
   true,
   true,
   true,
   true,
   true,
   true,
   true,
   true,
   true,
   true,
   true,
   true,
   true,
   true,
   true
  ],
  "atom_labels": [
   "",
   "",
   "",
   "",
   "",
   "",
   "",
   "",
   "",
   "",
   "",
   "",
   "",
   "",
   ""
  ],
  "atomic_numbers": [
   6,
   6,
   6,
   6,
   6,
   7,
   7,
   7,
   7,
   7,
   1,
   1,
   1,
   1,
   1
  ],
  "mass_numbers": [
   12,
   12,
   12,
   12,
   12,
   14,
   14,
   14,
   14,
   14,
   1,
   1,
   1,
   1,
   1
  ],
  "fragments": [
   [
    0,
    1,
    2,
    3,
    4,
    5,
    6,
    7,
    8,
    9,
    10,
    11,
    12,
    13,
    14
   ]
  ],
  "fragment_charges": [
   0.0
  ],
  "fragment_multiplicities": [
   1
  ],
  "fix_com": false,
  "fix_orientation": false,
  "provenance": {
   "creator": "QCElemental",
   "version": "v0.19.0",
   "routine": "qcelemental.molparse.from_string"
  }
 },
 "driver": "energy",
 "model": {
  "method": "b97m-v",
  "basis": "pcseg-1"
 },
 "keywords": {},
 "protocols": {},
 "extras": {
  "qcvars": {
   "CURRENT DIPOLE X": 1.4337877498818592,
   "CURRENT DIPOLE Y": -1.9501926352596186,
   "CURRENT DIPOLE Z": -0.9814163274002261,
   "CURRENT ENERGY": -467.1723180558079,
   "CURRENT REFERENCE ENERGY": -467.1723180558079,
   "DFT FUNCTIONAL TOTAL ENERGY": -467.1723180558079,
   "DFT TOTAL ENERGY": -467.1723180558079,
   "DFT VV10 ENERGY": 0.26613888112498985,
   "DFT XC ENERGY": -63.818927390726294,
   "NUCLEAR REPULSION ENERGY": 501.2235939031376,
   "ONE-ELECTRON ENERGY": -1625.8700108931037,
   "PCM POLARIZATION ENERGY": 0.0,
   "PE ENERGY": 0.0,
   "SCF DIPOLE X": 1.4337877498818592,
   "SCF DIPOLE Y": -1.9501926352596186,
   "SCF DIPOLE Z": -0.9814163274002261,
   "SCF ITERATION ENERGY": -467.1723180558079,
   "SCF ITERATIONS": 10.0,
   "SCF TOTAL ENERGY": -467.1723180558079,
   "TWO-ELECTRON ENERGY": 721.0268874437593,
   "XC GRID RADIAL POINTS": 75.0,
   "XC GRID SPHERICAL POINTS": 302.0,
   "XC GRID TOTAL POINTS": 314395.0,
   "CURRENT DIPOLE": [
    0.5640955055972965,
    -0.7672648205353574,
    -0.38611889343585815
   ],
   "SCF DIPOLE": [
    0.5640955055972965,
    -0.7672648205353574,
    -0.38611889343585815
   ]
  }
 },
 "provenance": {
  "creator": "Psi4",
  "version": "1.4a2.dev923",
  "routine": "psi4.schema_runner.run_qcschema",
  "qcengine_version": "v0.17.0",
  "username": "ubuntu",
  "wall_time": 28.96269130706787,
  "memory": 256.0,
  "hostname": "bignimbus",
  "nthreads": 16,
  "cpu": "AMD EPYC Processor (with IBPB)"
 },
 "properties": {
  "calcinfo_nbasis": 165,
  "calcinfo_nmo": 165,
  "calcinfo_nalpha": 35,
  "calcinfo_nbeta": 35,
  "calcinfo_natom": 15,
  "nuclear_repulsion_energy": 501.2235939031376,
  "return_energy": -467.1723180558079,
  "scf_one_electron_energy": -1625.8700108931037,
  "scf_two_electron_energy": 721.0268874437593,
  "scf_vv10_energy": 0.26613888112498985,
  "scf_xc_energy": -63.818927390726294,
  "scf_dipole_moment": [
   0.5640955055972965,
   -0.7672648205353574,
   -0.38611889343585815
  ],
  "scf_total_energy": -467.1723180558079,
  "scf_iterations": 10
 },
 "wavefunction": null,
 "return_result": -467.1723180558079,
 "stdout": "\n    -----------------------------------------------------------------------\n          Psi4: An Open-Source Ab Initio Electronic Structure Package\n                               Psi4 1.4a2.dev923 \n\n                         Git: Rev {master} 5de566e \n\n\n    D. G. A. Smith, L. A. Burns, A. C. Simmonett, R. M. Parrish,\n    M. C. Schieber, R. Galvelis, P. Kraus, H. Kruse, R. Di Remigio,\n    A. Alenaizan, A. M. James, S. Lehtola, J. P. Misiewicz, M. Scheurer,\n    R. A. Shaw, J. B. Schriber, Y. Xie, Z. L. Glick, D. A. Sirianni,\n    J. S. O'Brien, J. M. Waldrop, A. Kumar, E. G. Hohenstein,\n    B. P. Pritchard, B. R. Brooks, H. F. Schaefer III, A. Yu. Sokolov,\n    K. Patkowski, A. E. DePrince III, U. Bozkaya, R. A. King,\n    F. A. Evangelista, J. M. Turney, T. D. Crawford, C. D. Sherrill,\n    J. Chem. Phys. 152(18) 184108 (2020). https://doi.org/10.1063/5.0006002\n\n                            Additional Code Authors\n    E. T. Seidl, C. L. Janssen, E. F. Valeev, M. L. Leininger,\n    J. F. Gonthier, R. M. Richard, H. R. McAlexander, M. Saitow, X. Wang,\n    P. Verma, and M. H. Lechner\n\n             Previous Authors, Complete List of Code Contributors,\n                       and Citations for Specific Modules\n    https://github.com/psi4/psi4/blob/master/codemeta.json\n    https://github.com/psi4/psi4/graphs/contributors\n    http://psicode.org/psi4manual/master/introduction.html#citing-psifour\n\n    -----------------------------------------------------------------------\n\n\n    Psi4 started on: Sunday, 25 April 2021 12:09AM\n\n    Process ID: 3923304\n    Host:       bignimbus\n    PSIDATADIR: /home/ubuntu/pk/Applications/miniconda3/envs/psi4-1.4a2.dev923/share/psi4\n    Memory:     238.4 GiB\n    Threads:    16\n    \n  ==> Input QCSchema <==\n\n--------------------------------------------------------------------------\n{'driver': 'energy',\n 'extras': {},\n 'id': None,\n 'keywords': {},\n 'model': {'basis': 'pcseg-1', 'method': 'b97m-v'},\n 'molecule': {'atom_labels': ['', '', '', '', '', '', '', '', '', '', '', '', '', '', ''],\n              'atomic_numbers': [6, 6, 6, 6, 6, 7, 7, 7, 7, 7, 1, 1, 1, 1, 1],\n              'fix_com': False,\n              'fix_orientation': False,\n              'fragment_charges': [0.0],\n              'fragment_multiplicities': [1],\n              'fragments': [[0, 1, 2, 3, 4, 5, 6, 7, 8, 9, 10, 11, 12, 13, 14]],\n              'geometry': [-2.600514844651058, 0.0578620588449254, -0.05834799091184806, -0.1816654040650374,\n                           -1.0514071767988198, 0.03991776761195798, 1.8611285375548747, 0.6342285271095629,\n                           0.08527119462294586, -0.6465380309276632, 3.967705412417172, 0.03235886311012681,\n                           3.1083477803570414, -3.3625422282337434, 0.004012971228259943, -2.785708004945924,\n                           2.5976539714602467, -0.05267881253547557, 1.7553038745292362, 3.1645718090975947,\n                           0.09849927750115128, 0.6309168298818285, -3.543955936277695, -0.011104837775402387,\n                           3.971952619691269, -0.9002290867621936, 0.08716092074840454, -4.769920436676644,\n                           -1.3273071911156626, -0.1112603224246671, -0.9092099623663015, 6.004830175660711,\n                           0.019130780231922273, 4.40658962854657, -4.938573816865572, -0.07157607379005348,\n                           5.787979426256242, -0.31630371399572454, -0.04700963415910131, -6.3516212036848465,\n                           -0.38811330676312206, -0.6366041853019437, -4.641419060145512, -3.160341532809756,\n                           -0.6403836375528593],\n              'mass_numbers': [12, 12, 12, 12, 12, 14, 14, 14, 14, 14, 1, 1, 1, 1, 1],\n              'masses': [12.0, 12.0, 12.0, 12.0, 12.0, 14.00307400443, 14.00307400443, 14.00307400443, 14.00307400443,\n                         14.00307400443, 1.00782503223, 1.00782503223, 1.00782503223, 1.00782503223, 1.00782503223],\n              'molecular_charge': 0.0,\n              'molecular_multiplicity': 1,\n              'name': 'C5H5N5',\n              'provenance': {'creator': 'QCElemental',\n                             'routine': 'qcelemental.molparse.from_string',\n                             'version': 'v0.19.0'},\n              'real': [True, True, True, True, True, True, True, True, True, True, True, True, True, True, True],\n              'symbols': ['C', 'C', 'C', 'C', 'C', 'N', 'N', 'N', 'N', 'N', 'H', 'H', 'H', 'H', 'H'],\n              'validated': True},\n 'protocols': {},\n 'provenance': {'creator': 'QCElemental', 'routine': 'qcelemental.models.results', 'version': 'v0.17.0'},\n 'schema_name': 'qcschema_input',\n 'schema_version': 1}\n--------------------------------------------------------------------------\n\nScratch directory: /home/ubuntu/pk/scratch/tmpo30w3ogx_psi_scratch/\n\n*** tstart() called on bignimbus\n*** at Sun Apr 25 00:09:48 2021\n\n   => Loading Basis Set <=\n\n    Name: PCSEG-1\n    Role: ORBITAL\n    Keyword: BASIS\n    atoms 1-5   entry C          line    90 file /home/ubuntu/pk/Applications/miniconda3/envs/psi4-1.4a2.dev923/share/psi4/basis/pcseg-1.gbs \n    atoms 6-10  entry N          line   111 file /home/ubuntu/pk/Applications/miniconda3/envs/psi4-1.4a2.dev923/share/psi4/basis/pcseg-1.gbs \n    atoms 11-15 entry H          line    13 file /home/ubuntu/pk/Applications/miniconda3/envs/psi4-1.4a2.dev923/share/psi4/basis/pcseg-1.gbs \n\n\n         ---------------------------------------------------------\n                                   SCF\n               by Justin Turney, Rob Parrish, Andy Simmonett\n                          and Daniel G. A. Smith\n                              RKS Reference\n                       16 Threads, 244140 MiB Core\n         ---------------------------------------------------------\n\n  ==> Geometry <==\n\n    Molecular point group: c1\n    Full point group: C1\n\n    Geometry (in Bohr), charge = 0, multiplicity = 1:\n\n       Center              X                  Y                   Z               Mass       \n    ------------   -----------------  -----------------  -----------------  -----------------\n         C           -2.600514844651     0.057862058845    -0.058347990912    12.000000000000\n         C           -0.181665404065    -1.051407176799     0.039917767612    12.000000000000\n         C            1.861128537555     0.634228527110     0.085271194623    12.000000000000\n         C           -0.646538030928     3.967705412417     0.032358863110    12.000000000000\n         C            3.108347780357    -3.362542228234     0.004012971228    12.000000000000\n         N           -2.785708004946     2.597653971460    -0.052678812535    14.003074004430\n         N            1.755303874529     3.164571809098     0.098499277501    14.003074004430\n         N            0.630916829882    -3.543955936278    -0.011104837775    14.003074004430\n         N            3.971952619691    -0.900229086762     0.087160920748    14.003074004430\n         N           -4.769920436677    -1.327307191116    -0.111260322425    14.003074004430\n         H           -0.909209962366     6.004830175661     0.019130780232     1.007825032230\n         H            4.406589628547    -4.938573816866    -0.071576073790     1.007825032230\n         H            5.787979426256    -0.316303713996    -0.047009634159     1.007825032230\n         H           -6.351621203685    -0.388113306763    -0.636604185302     1.007825032230\n         H           -4.641419060146    -3.160341532810    -0.640383637553     1.007825032230\n\n  Running in c1 symmetry.\n\n  Rotational constants: A =      0.07881  B =      0.05206  C =      0.03137 [cm^-1]\n  Rotational constants: A =   2362.65971  B =   1560.84141  C =    940.48329 [MHz]\n  Nuclear repulsion =  501.223593903137612\n\n  Charge       = 0\n  Multiplicity = 1\n  Electrons    = 70\n  Nalpha       = 35\n  Nbeta        = 35\n\n  ==> Algorithm <==\n\n  SCF Algorithm Type is DF.\n  DIIS enabled.\n  MOM disabled.\n  Fractional occupation disabled.\n  Guess Type is SAD.\n  Energy threshold   = 1.00e-06\n  Density threshold  = 1.00e-06\n  Integral threshold = 0.00e+00\n\n  ==> Primary Basis <==\n\n  Basis Set: PCSEG-1\n    Blend: PCSEG-1\n    Number of shells: 75\n    Number of basis function: 165\n    Number of Cartesian functions: 175\n    Spherical Harmonics?: true\n    Max angular momentum: 2\n\n  ==> DFT Potential <==\n\n   => Composite Functional: B97M-V <= \n\n    B97M-V GGA Exchange-Correlation Functional\n\n    N. Mardirossian and M. Head-Gordon, J. Chem. Phys. 142, 074111 (2015)\n\n    Deriv               =              1\n    GGA                 =           TRUE\n    Meta                =           TRUE\n\n    Exchange Hybrid     =          FALSE\n    MP2 Hybrid          =          FALSE\n\n   => Exchange-Correlation Functionals <=\n\n    1.0000   B97M-V exchange-correlation functional\n\n   => LibXC Density Thresholds  <==\n\n    XC_MGGA_XC_B97M_V:  1.00E-23 \n\n   => VV10 Non-Local Parameters <=\n\n    VV10 B              =     6.0000E+00\n    VV10 C              =     1.0000E-02\n\n   => Molecular Quadrature <=\n\n    Radial Scheme          =       TREUTLER\n    Pruning Scheme         =           NONE\n    Nuclear Scheme         =       TREUTLER\n\n    BS radius alpha        =              1\n    Pruning alpha          =              1\n    Radial Points          =             75\n    Spherical Points       =            302\n    Total Points           =         314395\n    Total Blocks           =           2354\n    Max Points             =            256\n    Max Functions          =            155\n    Weights Tolerance      =       1.00E-15\n\n   => Loading Basis Set <=\n\n    Name: (PCSEG-1 AUX)\n    Role: JKFIT\n    Keyword: DF_BASIS_SCF\n    atoms 1-5   entry C          line   198 file /home/ubuntu/pk/Applications/miniconda3/envs/psi4-1.4a2.dev923/share/psi4/basis/def2-universal-jkfit.gbs \n    atoms 6-10  entry N          line   258 file /home/ubuntu/pk/Applications/miniconda3/envs/psi4-1.4a2.dev923/share/psi4/basis/def2-universal-jkfit.gbs \n    atoms 11-15 entry H          line    18 file /home/ubuntu/pk/Applications/miniconda3/envs/psi4-1.4a2.dev923/share/psi4/basis/def2-universal-jkfit.gbs \n\n  ==> Integral Setup <==\n\n  DFHelper Memory: AOs need 0.174 GiB; user supplied 176.254 GiB. Using in-core AOs.\n\n  ==> MemDFJK: Density-Fitted J/K Matrices <==\n\n    J tasked:                   Yes\n    K tasked:                    No\n    wK tasked:                   No\n    OpenMP threads:              16\n    Memory [MiB]:            180484\n    Algorithm:                 Core\n    Schwarz Cutoff:           1E-12\n    Mask sparsity (%):       7.1405\n    Fitting Condition:        1E-10\n\n   => Auxiliary Basis Set <=\n\n  Basis Set: (PCSEG-1 AUX)\n    Blend: DEF2-UNIVERSAL-JKFIT\n    Number of shells: 280\n    Number of basis function: 850\n    Number of Cartesian functions: 1010\n    Spherical Harmonics?: true\n    Max angular momentum: 4\n\n  Cached 100.0% of DFT collocation blocks in 2.560 [GiB].\n\n  Minimum eigenvalue in the overlap matrix is 1.0417057685E-03.\n  Reciprocal condition number of the overlap matrix is 1.7063086071E-04.\n    Using symmetric orthogonalization.\n\n  ==> Pre-Iterations <==\n\n  SCF Guess: Superposition of Atomic Densities via on-the-fly atomic UHF (no occupation information).\n\n   -------------------------\n    Irrep   Nso     Nmo    \n   -------------------------\n     A        165     165 \n   -------------------------\n    Total     165     165\n   -------------------------\n\n  ==> Iterations <==\n\n                           Total Energy        Delta E     RMS |[F,P]|\n\n   @DF-RKS iter SAD:  -466.99418201217713   -4.66994e+02   0.00000e+00 \n   @DF-RKS iter   1:  -466.65623577099802    3.37946e-01   6.13450e-03 DIIS\n   @DF-RKS iter   2:  -466.36572281066765    2.90513e-01   7.70885e-03 DIIS\n   @DF-RKS iter   3:  -467.13053158818951   -7.64809e-01   1.72525e-03 DIIS\n   @DF-RKS iter   4:  -467.16673977146695   -3.62082e-02   6.46990e-04 DIIS\n   @DF-RKS iter   5:  -467.17102569422508   -4.28592e-03   3.07576e-04 DIIS\n   @DF-RKS iter   6:  -467.17222618339309   -1.20049e-03   7.99663e-05 DIIS\n   @DF-RKS iter   7:  -467.17229452726599   -6.83439e-05   4.18147e-05 DIIS\n   @DF-RKS iter   8:  -467.17231764064582   -2.31134e-05   5.70832e-06 DIIS\n   @DF-RKS iter   9:  -467.17231789026516   -2.49619e-07   3.70335e-06 DIIS\n   @DF-RKS iter  10:  -467.17231805580792   -1.65543e-07   9.91269e-07 DIIS\n  Energy and wave function converged.\n\n\n  ==> Post-Iterations <==\n\n    Orbital Energies [Eh]\n    ---------------------\n\n    Doubly Occupied:                                                      \n\n       1A    -14.395717     2A    -14.351540     3A    -14.328155  \n       4A    -14.320689     5A    -14.315470     6A    -10.267378  \n       7A    -10.256441     8A    -10.252016     9A    -10.239237  \n      10A    -10.204038    11A     -1.030094    12A     -0.971460  \n      13A     -0.929084    14A     -0.884521    15A     -0.854255  \n      16A     -0.755519    17A     -0.650859    18A     -0.634127  \n      19A     -0.612382    20A     -0.558600    21A     -0.526787  \n      22A     -0.493645    23A     -0.477383    24A     -0.444046  \n      25A     -0.437736    26A     -0.422652    27A     -0.397851  \n      28A     -0.381193    29A     -0.337699    30A     -0.304328  \n      31A     -0.280322    32A     -0.268943    33A     -0.254465  \n      34A     -0.234224    35A     -0.211657  \n\n    Virtual:                                                              \n\n      36A     -0.052198    37A     -0.025744    38A      0.004336  \n      39A      0.023896    40A      0.038533    41A      0.066841  \n      42A      0.083137    43A      0.096050    44A      0.137058  \n      45A      0.151585    46A      0.178129    47A      0.193463  \n      48A      0.213495    49A      0.240464    50A      0.275837  \n      51A      0.278394    52A      0.312584    53A      0.330461  \n      54A      0.341695    55A      0.372936    56A      0.387084  \n      57A      0.424040    58A      0.426487    59A      0.439383  \n      60A      0.474925    61A      0.482571    62A      0.487368  \n      63A      0.498742    64A      0.512439    65A      0.515240  \n      66A      0.520690    67A      0.561851    68A      0.578552  \n      69A      0.589981    70A      0.631044    71A      0.646707  \n      72A      0.663985    73A      0.681706    74A      0.702117  \n      75A      0.709334    76A      0.724405    77A      0.743669  \n      78A      0.758088    79A      0.791923    80A      0.800989  \n      81A      0.818391    82A      0.826484    83A      0.844560  \n      84A      0.866805    85A      0.886136    86A      0.931565  \n      87A      0.947076    88A      0.961258    89A      1.027230  \n      90A      1.067153    91A      1.119997    92A      1.157129  \n      93A      1.175826    94A      1.220681    95A      1.228099  \n      96A      1.295219    97A      1.313679    98A      1.348601  \n      99A      1.364500   100A      1.394075   101A      1.400671  \n     102A      1.438872   103A      1.446151   104A      1.476386  \n     105A      1.514831   106A      1.540697   107A      1.577452  \n     108A      1.647593   109A      1.666393   110A      1.697604  \n     111A      1.770560   112A      1.779573   113A      1.818476  \n     114A      1.833260   115A      1.845003   116A      1.884624  \n     117A      1.901647   118A      1.942293   119A      1.964310  \n     120A      1.981574   121A      1.999818   122A      2.021109  \n     123A      2.089611   124A      2.124970   125A      2.140205  \n     126A      2.156391   127A      2.192396   128A      2.207132  \n     129A      2.237215   130A      2.247073   131A      2.300901  \n     132A      2.343432   133A      2.354082   134A      2.361720  \n     135A      2.420303   136A      2.429274   137A      2.476713  \n     138A      2.482691   139A      2.511339   140A      2.521947  \n     141A      2.524782   142A      2.589132   143A      2.631628  \n     144A      2.671164   145A      2.680329   146A      2.707508  \n     147A      2.747448   148A      2.768523   149A      2.783356  \n     150A      2.810144   151A      2.845465   152A      2.884049  \n     153A      2.916779   154A      2.993722   155A      3.025393  \n     156A      3.112913   157A      3.135724   158A      3.229848  \n     159A      3.284876   160A      3.322853   161A      3.385272  \n     162A      3.464768   163A      3.645929   164A      3.677773  \n     165A      3.776021  \n\n    Final Occupation by Irrep:\n              A \n    DOCC [    35 ]\n\n  @DF-RKS Final Energy:  -467.17231805580792\n\n   => Energetics <=\n\n    Nuclear Repulsion Energy =            501.2235939031376120\n    One-Electron Energy =               -1625.8700108931036539\n    Two-Electron Energy =                 721.0268874437592785\n    DFT Exchange-Correlation Energy =     -63.8189273907262944\n    Empirical Dispersion Energy =           0.0000000000000000\n    VV10 Nonlocal Energy =                  0.2661388811249898\n    Total Energy =                       -467.1723180558079207\n\nComputation Completed\n\n\nProperties will be evaluated at   0.000000,   0.000000,   0.000000 [a0]\n\nProperties computed using the SCF density matrix\n\n  Nuclear Dipole Moment: [e a0]\n     X:    -0.8453      Y:    -1.3883      Z:    -0.6829\n\n  Electronic Dipole Moment: [e a0]\n     X:     1.4094      Y:     0.6210      Z:     0.2967\n\n  Dipole Moment: [e a0]\n     X:     0.5641      Y:    -0.7673      Z:    -0.3861     Total:     1.0276\n\n  Dipole Moment: [D]\n     X:     1.4338      Y:    -1.9502      Z:    -0.9814     Total:     2.6119\n\n\n*** tstop() called on bignimbus at Sun Apr 25 00:10:13 2021\nModule time:\n\tuser time   =     361.31 seconds =       6.02 minutes\n\tsystem time =       5.58 seconds =       0.09 minutes\n\ttotal time  =         25 seconds =       0.42 minutes\nTotal time:\n\tuser time   =     361.31 seconds =       6.02 minutes\n\tsystem time =       5.58 seconds =       0.09 minutes\n\ttotal time  =         25 seconds =       0.42 minutes\n\n    Psi4 stopped on: Sunday, 25 April 2021 12:10AM\n    Psi4 wall time for execution: 0:00:24.60\n\n*** Psi4 exiting successfully. Buy a developer a beer!\n",
 "stderr": null,
 "success": true,
 "error": null,
 "tag": "b97m-v pcseg-1 c3a_a"
}