{
 "id": null,
 "schema_name": "qcschema_output",
 "schema_version": 1,
 "molecule": {
  "validated": true,
  "symbols": [
   "C",
   "C",
   "C",
   "C",
   "C",
   "C",
   "C",
   "C",
   "C",
   "N",
   "N",
   "N",
   "N",
   "N",
   "N",
   "N",
   "N",
   "O",
   "O",
   "H",
   "H",
   "H",
   "H",
   "H",
   "H",
   "H",
   "H",
   "H",
   "H"
  ],
  "geometry": [
   -5.385731230938672,
   -0.06512979195590196,
   -2.408510240614475,
   -9.333369107020077,
   -0.3920524116601065,
   -0.08225738017588884,
   -8.074811507465164,
   -0.25599213062714243,
   2.149509173989806,
   -5.368723695809551,
   -0.06324006583044417,
   2.039905058713252,
   2.48686780771864,
   0.11061473771167618,
   2.011559166831385,
   2.496316438345929,
   0.18242433047907314,
   -2.6768513504294873,
   6.185061835239609,
   0.09171747645709827,
   -0.6794108358205626,
   5.168389179743299,
   0.10872501158621839,
   1.7658947705218673,
   9.155711304459315,
   -0.055681161328613,
   2.2742310982700227,
   -8.042686163332379,
   -0.2843380225090102,
   -2.304575303714295,
   -4.125283905258301,
   0.0482537755715673,
   -0.17674368644878027,
   -3.98733389809988,
   0.00856952693695368,
   4.156398319226019,
   1.2925608964292925,
   0.15974761697357875,
   -0.3694957512454787,
   4.998313828452094,
   0.13518117734262747,
   -2.9300746512408358,
   7.056225579075669,
   0.01801815756424264,
   3.5819215770868396,
   8.756979091987713,
   0.006679800811495002,
   -0.3165834197326595,
   1.026109512739739,
   0.2920284457556277,
   -4.761219266809471,
   -4.359609944815071,
   -0.01032773431762512,
   -4.515554870499954,
   1.1886259595291122,
   0.04447432332065172,
   3.978764063432984,
   -8.927077990046644,
   -0.5243332404421541,
   -3.986431555371763,
   -11.362934965761784,
   -0.6225989989659614,
   -0.21075875670702118,
   -9.076366353957813,
   -0.37504487653098595,
   3.9277414580456225,
   -4.841490106806818,
   -0.27488939188172123,
   5.840144297008944,
   -2.0125700969964484,
   0.027466788191531595,
   4.078919548082249,
   -0.6840926307995956,
   0.13896062959354305,
   -0.3317012287363222,
   11.03976825154077,
   -0.17473390723245563,
   3.052798261958648,
   10.06466957080453,
   -0.19363116848703443,
   -1.6979732174423317,
   1.9218396962067494,
   0.025577062066073804,
   -6.426067983337818,
   -0.9127494919799929,
   0.1257325467153385,
   -4.691299400167532
  ],
  "name": "C9H10N8O2",
  "molecular_charge": 0.0,
  "molecular_multiplicity": 1,
  "masses": [
   12.0,
   12.0,
   12.0,
   12.0,
   12.0,
   12.0,
   12.0,
   12.0,
   12.0,
   14.00307400443,
   14.00307400443,
   14.00307400443,
   14.00307400443,
   14.00307400443,
   14.00307400443,
   14.00307400443,
   14.00307400443,
   15.99491461957,
   15.99491461957,
   1.00782503223,
   1.00782503223,
   1.00782503223,
   1.00782503223,
   1.00782503223,
   1.00782503223,
   1.00782503223,
   1.00782503223,
   1.00782503223,
   1.00782503223
  ],
  "real": [
   true,
   true,
   true,
   true,
   true,
   true,
   true,
   true,
   true,
   true,
   true,
   true,
   true,
   true,
   true,
   true,
   true,
   true,
   true,
   true,
   true,
   true,
   true,
   true,
   true,
   true,
   true,
   true,
   true
  ],
  "atom_labels": [
   "",
   "",
   "",
   "",
   "",
   "",
   "",
   "",
   "",
   "",
   "",
   "",
   "",
   "",
   "",
   "",
   "",
   "",
   "",
   "",
   "",
   "",
   "",
   "",
   "",
   "",
   "",
   "",
   ""
  ],
  "atomic_numbers": [
   6,
   6,
   6,
   6,
   6,
   6,
   6,
   6,
   6,
   7,
   7,
   7,
   7,
   7,
   7,
   7,
   7,
   8,
   8,
   1,
   1,
   1,
   1,
   1,
   1,
   1,
   1,
   1,
   1
  ],
  "mass_numbers": [
   12,
   12,
   12,
   12,
   12,
   12,
   12,
   12,
   12,
   14,
   14,
   14,
   14,
   14,
   14,
   14,
   14,
   16,
   16,
   1,
   1,
   1,
   1,
   1,
   1,
   1,
   1,
   1,
   1
  ],
  "fragments": [
   [
    0,
    1,
    2,
    3,
    4,
    5,
    6,
    7,
    8,
    9,
    10,
    11,
    12,
    13,
    14,
    15,
    16,
    17,
    18,
    19,
    20,
    21,
    22,
    23,
    24,
    25,
    26,
    27,
    28
   ]
  ],
  "fragment_charges": [
   0.0
  ],
  "fragment_multiplicities": [
   1
  ],
  "fix_com": false,
  "fix_orientation": false,
  "provenance": {
   "creator": "QCElemental",
   "version": "v0.19.0",
   "routine": "qcelemental.molparse.from_string"
  }
 },
 "driver": "energy",
 "model": {
  "method": "dsd-blyp-d3bj",
  "basis": "pcseg-1"
 },
 "keywords": {},
 "protocols": {},
 "extras": {
  "qcvars": {
   "2-BODY DISPERSION CORRECTION ENERGY": -0.03287142,
   "CURRENT DIPOLE X": -6.448652429729812,
   "CURRENT DIPOLE Y": -1.4126721431010876,
   "CURRENT DIPOLE Z": -1.5876666858169117,
   "CURRENT ENERGY": -935.9966978418396,
   "CURRENT REFERENCE ENERGY": -934.5260843906716,
   "DFT FUNCTIONAL TOTAL ENERGY": -934.4932129706716,
   "DFT TOTAL ENERGY": -935.9966978418396,
   "DFT VV10 ENERGY": 0.0,
   "DFT XC ENERGY": -37.400869467701646,
   "DISPERSION CORRECTION ENERGY": -0.03287142,
   "DOUBLE-HYBRID CORRECTION ENERGY": -1.4706134511679405,
   "DSD-BLYP-D3BJ DISPERSION CORRECTION ENERGY": -0.03287142,
   "DSD-BLYP-D3BJ DOUBLE-HYBRID CORRECTION ENERGY": -1.4706134511679405,
   "DSD-BLYP-D3BJ TOTAL ENERGY": -935.9966978418396,
   "NUCLEAR REPULSION ENERGY": 1391.394659364626,
   "ONE-ELECTRON ENERGY": -4037.3533914681475,
   "PCM POLARIZATION ENERGY": 0.0,
   "PE ENERGY": 0.0,
   "SCF DIPOLE X": -6.448652429729812,
   "SCF DIPOLE Y": -1.4126721431010876,
   "SCF DIPOLE Z": -1.5876666858169117,
   "SCF ITERATION ENERGY": -934.5260843906716,
   "SCF ITERATIONS": 9.0,
   "SCF TOTAL ENERGY": -934.5260843906716,
   "TWO-ELECTRON ENERGY": 1748.8663886005515,
   "XC GRID RADIAL POINTS": 75.0,
   "XC GRID SPHERICAL POINTS": 302.0,
   "XC GRID TOTAL POINTS": 599224.0,
   "CURRENT DIPOLE": [
    -2.537095084728829,
    -0.5557879866608468,
    -0.6246361373429714
   ],
   "SCF DIPOLE": [
    -2.537095084728829,
    -0.5557879866608468,
    -0.6246361373429714
   ]
  }
 },
 "provenance": {
  "creator": "Psi4",
  "version": "1.4a2.dev923",
  "routine": "psi4.schema_runner.run_qcschema",
  "nthreads": 16,
  "wall_time": 24.86866021156311,
  "username": "ubuntu",
  "hostname": "bignimbus",
  "qcengine_version": "v0.17.0",
  "memory": 100.0,
  "cpu": "AMD EPYC Processor (with IBPB)"
 },
 "properties": {
  "calcinfo_nbasis": 316,
  "calcinfo_nmo": 316,
  "calcinfo_nalpha": 68,
  "calcinfo_nbeta": 68,
  "calcinfo_natom": 29,
  "nuclear_repulsion_energy": 1391.394659364626,
  "return_energy": -935.9966978418396,
  "scf_one_electron_energy": -4037.3533914681475,
  "scf_two_electron_energy": 1748.8663886005515,
  "scf_xc_energy": -37.400869467701646,
  "scf_dispersion_correction_energy": -0.03287142,
  "scf_dipole_moment": [
   -2.537095084728829,
   -0.5557879866608468,
   -0.6246361373429714
  ],
  "scf_total_energy": -934.5260843906716,
  "scf_iterations": 9
 },
 "wavefunction": null,
 "return_result": -935.9966978418396,
 "stdout": "\n    -----------------------------------------------------------------------\n          Psi4: An Open-Source Ab Initio Electronic Structure Package\n                               Psi4 1.4a2.dev923 \n\n                         Git: Rev {master} 5de566e \n\n\n    D. G. A. Smith, L. A. Burns, A. C. Simmonett, R. M. Parrish,\n    M. C. Schieber, R. Galvelis, P. Kraus, H. Kruse, R. Di Remigio,\n    A. Alenaizan, A. M. James, S. Lehtola, J. P. Misiewicz, M. Scheurer,\n    R. A. Shaw, J. B. Schriber, Y. Xie, Z. L. Glick, D. A. Sirianni,\n    J. S. O'Brien, J. M. Waldrop, A. Kumar, E. G. Hohenstein,\n    B. P. Pritchard, B. R. Brooks, H. F. Schaefer III, A. Yu. Sokolov,\n    K. Patkowski, A. E. DePrince III, U. Bozkaya, R. A. King,\n    F. A. Evangelista, J. M. Turney, T. D. Crawford, C. D. Sherrill,\n    J. Chem. Phys. 152(18) 184108 (2020). https://doi.org/10.1063/5.0006002\n\n                            Additional Code Authors\n    E. T. Seidl, C. L. Janssen, E. F. Valeev, M. L. Leininger,\n    J. F. Gonthier, R. M. Richard, H. R. McAlexander, M. Saitow, X. Wang,\n    P. Verma, and M. H. Lechner\n\n             Previous Authors, Complete List of Code Contributors,\n                       and Citations for Specific Modules\n    https://github.com/psi4/psi4/blob/master/codemeta.json\n    https://github.com/psi4/psi4/graphs/contributors\n    http://psicode.org/psi4manual/master/introduction.html#citing-psifour\n\n    -----------------------------------------------------------------------\n\n\n    Psi4 started on: Wednesday, 12 May 2021 04:45PM\n\n    Process ID: 2165415\n    Host:       bignimbus\n    PSIDATADIR: /home/ubuntu/pk/Applications/miniconda3/envs/psi4-1.4a2.dev923/share/psi4\n    Memory:     93.1 GiB\n    Threads:    16\n    \n  ==> Input QCSchema <==\n\n--------------------------------------------------------------------------\n{'driver': 'energy',\n 'extras': {},\n 'id': None,\n 'keywords': {},\n 'model': {'basis': 'pcseg-1', 'method': 'dsd-blyp-d3bj'},\n 'molecule': {'atom_labels': ['', '', '', '', '', '', '', '', '', '', '', '', '', '', '', '', '', '', '', '', '', '',\n                              '', '', '', '', '', '', ''],\n              'atomic_numbers': [6, 6, 6, 6, 6, 6, 6, 6, 6, 7, 7, 7, 7, 7, 7, 7, 7, 8, 8, 1, 1, 1, 1, 1, 1, 1, 1, 1, 1],\n              'fix_com': False,\n              'fix_orientation': False,\n              'fragment_charges': [0.0],\n              'fragment_multiplicities': [1],\n              'fragments': [[0, 1, 2, 3, 4, 5, 6, 7, 8, 9, 10, 11, 12, 13, 14, 15, 16, 17, 18, 19, 20, 21, 22, 23, 24,\n                             25, 26, 27, 28]],\n              'geometry': [-5.3857312309386725, -0.06512979195590063, -2.408510240614475, -9.333369107020077,\n                           -0.3920524116601052, -0.08225738017588882, -8.074811507465164, -0.2559921306271411,\n                           2.149509173989806, -5.368723695809552, -0.06324006583044284, 2.039905058713252,\n                           2.4868678077186392, 0.11061473771167751, 2.011559166831385, 2.496316438345928,\n                           0.18242433047907447, -2.6768513504294873, 6.185061835239608, 0.0917174764570996,\n                           -0.6794108358205626, 5.168389179743298, 0.10872501158621972, 1.7658947705218673,\n                           9.155711304459315, -0.05568116132861167, 2.2742310982700227, -8.042686163332379,\n                           -0.28433802250900886, -2.304575303714295, -4.125283905258302, 0.048253775571568625,\n                           -0.17674368644878025, -3.9873338980998807, 0.008569526936955008, 4.156398319226019,\n                           1.2925608964292916, 0.1597476169735801, -0.3694957512454787, 4.998313828452093,\n                           0.1351811773426288, -2.9300746512408358, 7.056225579075668, 0.018018157564243964,\n                           3.5819215770868396, 8.756979091987713, 0.006679800811496328, -0.3165834197326595,\n                           1.0261095127397382, 0.29202844575562903, -4.761219266809471, -4.359609944815072,\n                           -0.010327734317623793, -4.515554870499954, 1.1886259595291113, 0.04447432332065304,\n                           3.978764063432984, -8.927077990046644, -0.5243332404421528, -3.986431555371763,\n                           -11.362934965761784, -0.62259899896596, -0.21075875670702116, -9.076366353957813,\n                           -0.3750448765309846, 3.9277414580456225, -4.841490106806819, -0.2748893918817199,\n                           5.840144297008944, -2.0125700969964493, 0.02746678819153292, 4.078919548082249,\n                           -0.6840926307995965, 0.13896062959354438, -0.3317012287363222, 11.03976825154077,\n                           -0.1747339072324543, 3.052798261958648, 10.06466957080453, -0.1936311684870331,\n                           -1.6979732174423317, 1.9218396962067485, 0.02557706206607513, -6.426067983337818,\n                           -0.9127494919799938, 0.12573254671533984, -4.691299400167532],\n              'mass_numbers': [12, 12, 12, 12, 12, 12, 12, 12, 12, 14, 14, 14, 14, 14, 14, 14, 14, 16, 16, 1, 1, 1, 1,\n                               1, 1, 1, 1, 1, 1],\n              'masses': [12.0, 12.0, 12.0, 12.0, 12.0, 12.0, 12.0, 12.0, 12.0, 14.00307400443, 14.00307400443,\n                         14.00307400443, 14.00307400443, 14.00307400443, 14.00307400443, 14.00307400443, 14.00307400443,\n                         15.99491461957, 15.99491461957, 1.00782503223, 1.00782503223, 1.00782503223, 1.00782503223,\n                         1.00782503223, 1.00782503223, 1.00782503223, 1.00782503223, 1.00782503223, 1.00782503223],\n              'molecular_charge': 0.0,\n              'molecular_multiplicity': 1,\n              'name': 'C9H10N8O2',\n              'provenance': {'creator': 'QCElemental',\n                             'routine': 'qcelemental.molparse.from_string',\n                             'version': 'v0.19.0'},\n              'real': [True, True, True, True, True, True, True, True, True, True, True, True, True, True, True, True,\n                       True, True, True, True, True, True, True, True, True, True, True, True, True],\n              'symbols': ['C', 'C', 'C', 'C', 'C', 'C', 'C', 'C', 'C', 'N', 'N', 'N', 'N', 'N', 'N', 'N', 'N', 'O', 'O',\n                          'H', 'H', 'H', 'H', 'H', 'H', 'H', 'H', 'H', 'H'],\n              'validated': True},\n 'protocols': {},\n 'provenance': {'creator': 'QCElemental', 'routine': 'qcelemental.models.results', 'version': 'v0.17.0'},\n 'schema_name': 'qcschema_input',\n 'schema_version': 1}\n--------------------------------------------------------------------------\n\nScratch directory: /home/ubuntu/pk/scratch/tmpeb0lns38_psi_scratch/\n\n*** tstart() called on bignimbus\n*** at Wed May 12 16:45:47 2021\n\n   => Loading Basis Set <=\n\n    Name: PCSEG-1\n    Role: ORBITAL\n    Keyword: BASIS\n    atoms 1-9   entry C          line    90 file /home/ubuntu/pk/Applications/miniconda3/envs/psi4-1.4a2.dev923/share/psi4/basis/pcseg-1.gbs \n    atoms 10-17 entry N          line   111 file /home/ubuntu/pk/Applications/miniconda3/envs/psi4-1.4a2.dev923/share/psi4/basis/pcseg-1.gbs \n    atoms 18-19 entry O          line   132 file /home/ubuntu/pk/Applications/miniconda3/envs/psi4-1.4a2.dev923/share/psi4/basis/pcseg-1.gbs \n    atoms 20-29 entry H          line    13 file /home/ubuntu/pk/Applications/miniconda3/envs/psi4-1.4a2.dev923/share/psi4/basis/pcseg-1.gbs \n\n   => DSD-BLYP-D3BJ: Empirical Dispersion <=\n\n    Grimme's -D3 (BJ-damping) Dispersion Correction\n    Grimme S.; Ehrlich S.; Goerigk L. (2011), J. Comput. Chem., 32: 1456\n    Parametrisation from:    S. Kozuch, J.M.L. Martin, J. Comp. Chem., 34, 2327-2344, 2013\n\n        s6 =       0.570000\n        s8 =       0.000000\n        a1 =       0.000000\n        a2 =       5.400000\n\n\n         ---------------------------------------------------------\n                                   SCF\n               by Justin Turney, Rob Parrish, Andy Simmonett\n                          and Daniel G. A. Smith\n                              RKS Reference\n                       16 Threads,  95367 MiB Core\n         ---------------------------------------------------------\n\n  ==> Geometry <==\n\n    Molecular point group: c1\n    Full point group: C1\n\n    Geometry (in Bohr), charge = 0, multiplicity = 1:\n\n       Center              X                  Y                   Z               Mass       \n    ------------   -----------------  -----------------  -----------------  -----------------\n         C           -5.385731230939    -0.065129791956    -2.408510240614    12.000000000000\n         C           -9.333369107020    -0.392052411660    -0.082257380176    12.000000000000\n         C           -8.074811507465    -0.255992130627     2.149509173990    12.000000000000\n         C           -5.368723695810    -0.063240065830     2.039905058713    12.000000000000\n         C            2.486867807719     0.110614737712     2.011559166831    12.000000000000\n         C            2.496316438346     0.182424330479    -2.676851350429    12.000000000000\n         C            6.185061835240     0.091717476457    -0.679410835821    12.000000000000\n         C            5.168389179743     0.108725011586     1.765894770522    12.000000000000\n         C            9.155711304459    -0.055681161329     2.274231098270    12.000000000000\n         N           -8.042686163332    -0.284338022509    -2.304575303714    14.003074004430\n         N           -4.125283905258     0.048253775572    -0.176743686449    14.003074004430\n         N           -3.987333898100     0.008569526937     4.156398319226    14.003074004430\n         N            1.292560896429     0.159747616974    -0.369495751245    14.003074004430\n         N            4.998313828452     0.135181177343    -2.930074651241    14.003074004430\n         N            7.056225579076     0.018018157564     3.581921577087    14.003074004430\n         N            8.756979091988     0.006679800811    -0.316583419733    14.003074004430\n         N            1.026109512740     0.292028445756    -4.761219266809    14.003074004430\n         O           -4.359609944815    -0.010327734318    -4.515554870500    15.994914619570\n         O            1.188625959529     0.044474323321     3.978764063433    15.994914619570\n         H           -8.927077990047    -0.524333240442    -3.986431555372     1.007825032230\n         H          -11.362934965762    -0.622598998966    -0.210758756707     1.007825032230\n         H           -9.076366353958    -0.375044876531     3.927741458046     1.007825032230\n         H           -4.841490106807    -0.274889391882     5.840144297009     1.007825032230\n         H           -2.012570096996     0.027466788192     4.078919548082     1.007825032230\n         H           -0.684092630800     0.138960629594    -0.331701228736     1.007825032230\n         H           11.039768251541    -0.174733907232     3.052798261959     1.007825032230\n         H           10.064669570805    -0.193631168487    -1.697973217442     1.007825032230\n         H            1.921839696207     0.025577062066    -6.426067983338     1.007825032230\n         H           -0.912749491980     0.125732546715    -4.691299400168     1.007825032230\n\n  Running in c1 symmetry.\n\n  Rotational constants: A =      0.02936  B =      0.00676  C =      0.00550 [cm^-1]\n  Rotational constants: A =    880.10499  B =    202.52246  C =    164.76767 [MHz]\n  Nuclear repulsion = 1391.394659364626023\n\n  Charge       = 0\n  Multiplicity = 1\n  Electrons    = 136\n  Nalpha       = 68\n  Nbeta        = 68\n\n  ==> Algorithm <==\n\n  SCF Algorithm Type is DF.\n  DIIS enabled.\n  MOM disabled.\n  Fractional occupation disabled.\n  Guess Type is SAD.\n  Energy threshold   = 1.00e-06\n  Density threshold  = 1.00e-06\n  Integral threshold = 0.00e+00\n\n  ==> Primary Basis <==\n\n  Basis Set: PCSEG-1\n    Blend: PCSEG-1\n    Number of shells: 144\n    Number of basis function: 316\n    Number of Cartesian functions: 335\n    Spherical Harmonics?: true\n    Max angular momentum: 2\n\n  ==> DFT Potential <==\n\n   => Composite Functional: DSD-BLYP-D3BJ <= \n\n    DSD-BLYP-D3BJ Dispersion-corrected SCS Double Hybrid XC Functional\n\n    S. Kozuch, J.M.L. Martin, J. Comp. Chem., 34, 2327-2344, 2013\n\n\n    Deriv               =              1\n    GGA                 =           TRUE\n    Meta                =          FALSE\n\n    Exchange Hybrid     =           TRUE\n    MP2 Hybrid          =           TRUE\n\n   => Exchange Functionals <=\n\n    0.2900     XC_GGA_X_B88\n\n   => Exact (HF) Exchange <=\n\n    0.7100               HF \n\n   => Correlation Functionals <=\n\n    0.5400     XC_GGA_C_LYP\n\n   => MP2 Correlation <=\n\n    MP2 SCS Hybrid      =           TRUE\n    MP2 OS Alpha        =       0.470000\n    MP2 SS Alpha        =       0.400000\n\n   => LibXC Density Thresholds  <==\n\n    XC_GGA_C_LYP:  1.00E-32 \n    XC_GGA_X_B88:  1.00E-25 \n\n   => Molecular Quadrature <=\n\n    Radial Scheme          =       TREUTLER\n    Pruning Scheme         =           NONE\n    Nuclear Scheme         =       TREUTLER\n\n    BS radius alpha        =              1\n    Pruning alpha          =              1\n    Radial Points          =             75\n    Spherical Points       =            302\n    Total Points           =         599224\n    Total Blocks           =           4347\n    Max Points             =            256\n    Max Functions          =            241\n    Weights Tolerance      =       1.00E-15\n\n   => Loading Basis Set <=\n\n    Name: (PCSEG-1 AUX)\n    Role: JKFIT\n    Keyword: DF_BASIS_SCF\n    atoms 1-9   entry C          line   198 file /home/ubuntu/pk/Applications/miniconda3/envs/psi4-1.4a2.dev923/share/psi4/basis/def2-universal-jkfit.gbs \n    atoms 10-17 entry N          line   258 file /home/ubuntu/pk/Applications/miniconda3/envs/psi4-1.4a2.dev923/share/psi4/basis/def2-universal-jkfit.gbs \n    atoms 18-19 entry O          line   318 file /home/ubuntu/pk/Applications/miniconda3/envs/psi4-1.4a2.dev923/share/psi4/basis/def2-universal-jkfit.gbs \n    atoms 20-29 entry H          line    18 file /home/ubuntu/pk/Applications/miniconda3/envs/psi4-1.4a2.dev923/share/psi4/basis/def2-universal-jkfit.gbs \n\n  ==> Integral Setup <==\n\n  DFHelper Memory: AOs need 0.909 GiB; user supplied 67.291 GiB. Using in-core AOs.\n\n  ==> MemDFJK: Density-Fitted J/K Matrices <==\n\n    J tasked:                   Yes\n    K tasked:                   Yes\n    wK tasked:                   No\n    OpenMP threads:              16\n    Memory [MiB]:             68905\n    Algorithm:                 Core\n    Schwarz Cutoff:           1E-12\n    Mask sparsity (%):      29.1019\n    Fitting Condition:        1E-10\n\n   => Auxiliary Basis Set <=\n\n  Basis Set: (PCSEG-1 AUX)\n    Blend: DEF2-UNIVERSAL-JKFIT\n    Number of shells: 535\n    Number of basis function: 1625\n    Number of Cartesian functions: 1931\n    Spherical Harmonics?: true\n    Max angular momentum: 4\n\n  Cached 100.0% of DFT collocation blocks in 2.558 [GiB].\n\n  Minimum eigenvalue in the overlap matrix is 8.9529786017E-04.\n  Reciprocal condition number of the overlap matrix is 1.4739409995E-04.\n    Using symmetric orthogonalization.\n\n  ==> Pre-Iterations <==\n\n  SCF Guess: Superposition of Atomic Densities via on-the-fly atomic UHF (no occupation information).\n\n   -------------------------\n    Irrep   Nso     Nmo    \n   -------------------------\n     A        316     316 \n   -------------------------\n    Total     316     316\n   -------------------------\n\n  ==> Iterations <==\n\n                           Total Energy        Delta E     RMS |[F,P]|\n\n   @DF-RKS iter SAD:  -934.14868089621257   -9.34149e+02   0.00000e+00 \n   @DF-RKS iter   1:  -933.99636575886120    1.52315e-01   3.40438e-03 DIIS\n   @DF-RKS iter   2:  -934.25376455259811   -2.57399e-01   2.63649e-03 DIIS\n   @DF-RKS iter   3:  -934.51563738974016   -2.61873e-01   4.72955e-04 DIIS\n   @DF-RKS iter   4:  -934.52456985710307   -8.93247e-03   1.71800e-04 DIIS\n   @DF-RKS iter   5:  -934.52598141715771   -1.41156e-03   3.60792e-05 DIIS\n   @DF-RKS iter   6:  -934.52606491358210   -8.34964e-05   1.32091e-05 DIIS\n   @DF-RKS iter   7:  -934.52608112470421   -1.62111e-05   5.38218e-06 DIIS\n   @DF-RKS iter   8:  -934.52608390555713   -2.78085e-06   2.29625e-06 DIIS\n   @DF-RKS iter   9:  -934.52608439067160   -4.85114e-07   7.34189e-07 DIIS\n  Energy and wave function converged.\n\n\n  ==> Post-Iterations <==\n\n    Orbital Energies [Eh]\n    ---------------------\n\n    Doubly Occupied:                                                      \n\n       1A    -20.011976     2A    -19.992384     3A    -15.193537  \n       4A    -15.163461     5A    -15.144750     6A    -15.140845  \n       7A    -15.115576     8A    -15.115549     9A    -15.095047  \n      10A    -15.090304    11A    -11.017835    12A    -10.987579  \n      13A    -10.985605    14A    -10.971238    15A    -10.965425  \n      16A    -10.927715    17A    -10.914784    18A    -10.887171  \n      19A    -10.851666    20A     -1.296159    21A     -1.262002  \n      22A     -1.233520    23A     -1.209287    24A     -1.202030  \n      25A     -1.174606    26A     -1.096796    27A     -1.090062  \n      28A     -1.085327    29A     -1.061143    30A     -0.994634  \n      31A     -0.926836    32A     -0.847790    33A     -0.825605  \n      34A     -0.815228    35A     -0.791441    36A     -0.756244  \n      37A     -0.725065    38A     -0.718679    39A     -0.710281  \n      40A     -0.678387    41A     -0.659641    42A     -0.652490  \n      43A     -0.633617    44A     -0.619156    45A     -0.595921  \n      46A     -0.593564    47A     -0.590760    48A     -0.579375  \n      49A     -0.577095    50A     -0.560683    51A     -0.549592  \n      52A     -0.535035    53A     -0.532983    54A     -0.523851  \n      55A     -0.500563    56A     -0.480971    57A     -0.470111  \n      58A     -0.428146    59A     -0.411147    60A     -0.400427  \n      61A     -0.384835    62A     -0.375311    63A     -0.364123  \n      64A     -0.361086    65A     -0.354734    66A     -0.349624  \n      67A     -0.335181    68A     -0.254888  \n\n    Virtual:                                                              \n\n      69A      0.022465    70A      0.078222    71A      0.085976  \n      72A      0.090503    73A      0.102968    74A      0.109462  \n      75A      0.119276    76A      0.131830    77A      0.149324  \n      78A      0.154149    79A      0.163041    80A      0.171422  \n      81A      0.228626    82A      0.241218    83A      0.249498  \n      84A      0.265832    85A      0.280491    86A      0.295378  \n      87A      0.297430    88A      0.305906    89A      0.310870  \n      90A      0.336207    91A      0.351771    92A      0.354278  \n      93A      0.363308    94A      0.378015    95A      0.393044  \n      96A      0.400633    97A      0.413852    98A      0.415999  \n      99A      0.426359   100A      0.458537   101A      0.467674  \n     102A      0.474716   103A      0.480495   104A      0.490490  \n     105A      0.513389   106A      0.517667   107A      0.527698  \n     108A      0.539337   109A      0.548799   110A      0.560523  \n     111A      0.562748   112A      0.566580   113A      0.587622  \n     114A      0.597802   115A      0.606650   116A      0.614310  \n     117A      0.619509   118A      0.621177   119A      0.627660  \n     120A      0.640395   121A      0.655165   122A      0.659097  \n     123A      0.661544   124A      0.668314   125A      0.678501  \n     126A      0.690189   127A      0.714191   128A      0.725193  \n     129A      0.726738   130A      0.732679   131A      0.757587  \n     132A      0.775486   133A      0.783812   134A      0.805449  \n     135A      0.810137   136A      0.814719   137A      0.835122  \n     138A      0.836887   139A      0.837613   140A      0.855252  \n     141A      0.856071   142A      0.859730   143A      0.870082  \n     144A      0.886338   145A      0.896306   146A      0.897095  \n     147A      0.913647   148A      0.915069   149A      0.926894  \n     150A      0.952496   151A      0.965004   152A      0.972226  \n     153A      0.978735   154A      0.993478   155A      1.006484  \n     156A      1.015511   157A      1.044203   158A      1.051450  \n     159A      1.061221   160A      1.068638   161A      1.098316  \n     162A      1.122158   163A      1.133916   164A      1.148775  \n     165A      1.159705   166A      1.171868   167A      1.189337  \n     168A      1.226595   169A      1.245425   170A      1.258569  \n     171A      1.304441   172A      1.307900   173A      1.329185  \n     174A      1.345828   175A      1.369960   176A      1.381022  \n     177A      1.391792   178A      1.402808   179A      1.417155  \n     180A      1.420854   181A      1.439865   182A      1.443860  \n     183A      1.474276   184A      1.499899   185A      1.502774  \n     186A      1.514782   187A      1.521949   188A      1.539020  \n     189A      1.556551   190A      1.563986   191A      1.567228  \n     192A      1.587159   193A      1.605665   194A      1.613524  \n     195A      1.623722   196A      1.642220   197A      1.649185  \n     198A      1.653859   199A      1.666727   200A      1.678924  \n     201A      1.688039   202A      1.713059   203A      1.749036  \n     204A      1.769406   205A      1.842453   206A      1.867473  \n     207A      1.886048   208A      1.913328   209A      1.939930  \n     210A      1.968576   211A      1.989986   212A      2.001049  \n     213A      2.008345   214A      2.014091   215A      2.040702  \n     216A      2.045513   217A      2.055942   218A      2.063306  \n     219A      2.072562   220A      2.093379   221A      2.094515  \n     222A      2.104189   223A      2.135366   224A      2.144259  \n     225A      2.144546   226A      2.164367   227A      2.176337  \n     228A      2.187288   229A      2.205769   230A      2.209018  \n     231A      2.226241   232A      2.228153   233A      2.237493  \n     234A      2.256289   235A      2.277137   236A      2.308643  \n     237A      2.326064   238A      2.351970   239A      2.355819  \n     240A      2.365987   241A      2.373263   242A      2.376839  \n     243A      2.388359   244A      2.408101   245A      2.411494  \n     246A      2.433307   247A      2.444565   248A      2.457310  \n     249A      2.466383   250A      2.474853   251A      2.497859  \n     252A      2.508481   253A      2.511717   254A      2.524643  \n     255A      2.539092   256A      2.547218   257A      2.560689  \n     258A      2.571806   259A      2.600346   260A      2.614662  \n     261A      2.625546   262A      2.632977   263A      2.645641  \n     264A      2.655270   265A      2.664857   266A      2.674932  \n     267A      2.709484   268A      2.730859   269A      2.737596  \n     270A      2.749410   271A      2.761959   272A      2.774583  \n     273A      2.794523   274A      2.802470   275A      2.821758  \n     276A      2.843063   277A      2.853775   278A      2.862518  \n     279A      2.871510   280A      2.885521   281A      2.900319  \n     282A      2.923566   283A      2.936253   284A      2.954637  \n     285A      2.975383   286A      2.989733   287A      3.005942  \n     288A      3.024891   289A      3.036503   290A      3.069018  \n     291A      3.085665   292A      3.122242   293A      3.154470  \n     294A      3.178240   295A      3.193886   296A      3.211137  \n     297A      3.230836   298A      3.244129   299A      3.281452  \n     300A      3.321081   301A      3.337348   302A      3.361395  \n     303A      3.418951   304A      3.480196   305A      3.488316  \n     306A      3.509913   307A      3.550329   308A      3.585941  \n     309A      3.590755   310A      3.608319   311A      3.665902  \n     312A      3.851175   313A      3.868165   314A      3.905394  \n     315A      3.937936   316A      3.991240  \n\n    Final Occupation by Irrep:\n              A \n    DOCC [    68 ]\n\n  @DF-RKS Final Energy:  -934.52608439067160\n\n   => Energetics <=\n\n    Nuclear Repulsion Energy =           1391.3946593646260226\n    One-Electron Energy =               -4037.3533914681474926\n    Two-Electron Energy =                1748.8663886005515451\n    DFT Exchange-Correlation Energy =     -37.4008694677016464\n    Empirical Dispersion Energy =          -0.0328714200000000\n    VV10 Nonlocal Energy =                  0.0000000000000000\n    Total Energy =                       -934.5260843906715991\n\nComputation Completed\n\n\nProperties will be evaluated at   0.000000,   0.000000,   0.000000 [a0]\n\nProperties computed using the SCF density matrix\n\n  Nuclear Dipole Moment: [e a0]\n     X:    -7.3564      Y:    -0.9170      Z:    -0.2171\n\n  Electronic Dipole Moment: [e a0]\n     X:     4.8193      Y:     0.3612      Z:    -0.4075\n\n  Dipole Moment: [e a0]\n     X:    -2.5371      Y:    -0.5558      Z:    -0.6246     Total:     2.6713\n\n  Dipole Moment: [D]\n     X:    -6.4487      Y:    -1.4127      Z:    -1.5877     Total:     6.7898\n\n\n*** tstop() called on bignimbus at Wed May 12 16:46:02 2021\nModule time:\n\tuser time   =     177.84 seconds =       2.96 minutes\n\tsystem time =       7.81 seconds =       0.13 minutes\n\ttotal time  =         15 seconds =       0.25 minutes\nTotal time:\n\tuser time   =     177.84 seconds =       2.96 minutes\n\tsystem time =       7.81 seconds =       0.13 minutes\n\ttotal time  =         15 seconds =       0.25 minutes\n\n*** tstart() called on bignimbus\n*** at Wed May 12 16:46:02 2021\n\n   => Loading Basis Set <=\n\n    Name: (PCSEG-1 AUX)\n    Role: RIFIT\n    Keyword: DF_BASIS_MP2\n    atoms 1-9   entry C          line   153 file /home/ubuntu/pk/Applications/miniconda3/envs/psi4-1.4a2.dev923/share/psi4/basis/def2-svp-ri.gbs \n    atoms 10-17 entry N          line   193 file /home/ubuntu/pk/Applications/miniconda3/envs/psi4-1.4a2.dev923/share/psi4/basis/def2-svp-ri.gbs \n    atoms 18-19 entry O          line   233 file /home/ubuntu/pk/Applications/miniconda3/envs/psi4-1.4a2.dev923/share/psi4/basis/def2-svp-ri.gbs \n    atoms 20-29 entry H          line    22 file /home/ubuntu/pk/Applications/miniconda3/envs/psi4-1.4a2.dev923/share/psi4/basis/def2-svp-ri.gbs \n\n\t --------------------------------------------------------\n\t                          DF-MP2                         \n\t      2nd-Order Density-Fitted Moller-Plesset Theory     \n\t              RMP2 Wavefunction,  16 Threads             \n\t                                                         \n\t        Rob Parrish, Justin Turney, Andy Simmonett,      \n\t           Ed Hohenstein, and C. David Sherrill          \n\t --------------------------------------------------------\n\n   => Auxiliary Basis Set <=\n\n  Basis Set: (PCSEG-1 AUX)\n    Blend: DEF2-SVP-RI\n    Number of shells: 364\n    Number of basis function: 1052\n    Number of Cartesian functions: 1195\n    Spherical Harmonics?: true\n    Max angular momentum: 3\n\n\t --------------------------------------------------------\n\t                 NBF =   316, NAUX =  1052\n\t --------------------------------------------------------\n\t   CLASS    FOCC     OCC    AOCC    AVIR     VIR    FVIR\n\t   PAIRS       0      68      68     248     248       0\n\t --------------------------------------------------------\n\n\t-----------------------------------------------------------\n\t ==================> DF-MP2 Energies <==================== \n\t-----------------------------------------------------------\n\t Reference Energy          =    -934.5260843906715991 [Eh]\n\t Singles Energy            =      -0.0000000000000000 [Eh]\n\t Same-Spin Energy          =      -0.9106042634715940 [Eh]\n\t Opposite-Spin Energy      =      -2.3539824378283045 [Eh]\n\t Correlation Energy        =      -3.2645867012998986 [Eh]\n\t Total Energy              =    -937.7906710919714897 [Eh]\n\t-----------------------------------------------------------\n\t ================> DF-SCS-MP2 Energies <================== \n\t-----------------------------------------------------------\n\t SCS Same-Spin Scale       =       0.4000000000000000 [-]\n\t SCS Opposite-Spin Scale   =       0.4700000000000000 [-]\n\t SCS Same-Spin Energy      =      -0.3642417053886376 [Eh]\n\t SCS Opposite-Spin Energy  =      -1.1063717457793030 [Eh]\n\t SCS Correlation Energy    =      -3.1283136798844966 [Eh]\n\t SCS Total Energy          =    -937.6543980705561125 [Eh]\n\t-----------------------------------------------------------\n\n\n\n    DSD-BLYP-D3BJ Energy Summary\n    ----------------------------\n    DFT Reference Energy                  =  -934.5260843906715991\n    Scaled MP2 Correlation                =    -1.4706134511679405\n    @Final double-hybrid DFT total energy =  -935.9966978418395911\n\n\n*** tstop() called on bignimbus at Wed May 12 16:46:07 2021\nModule time:\n\tuser time   =      59.85 seconds =       1.00 minutes\n\tsystem time =       1.38 seconds =       0.02 minutes\n\ttotal time  =          5 seconds =       0.08 minutes\nTotal time:\n\tuser time   =     237.72 seconds =       3.96 minutes\n\tsystem time =       9.20 seconds =       0.15 minutes\n\ttotal time  =         20 seconds =       0.33 minutes\n\n    Psi4 stopped on: Wednesday, 12 May 2021 04:46PM\n    Psi4 wall time for execution: 0:00:20.18\n\n*** Psi4 exiting successfully. Buy a developer a beer!\n",
 "stderr": null,
 "success": true,
 "error": null,
 "tag": "dsd-blyp-d3bj pcseg-1 c3gc_a"
}