{
 "id": null,
 "schema_name": "qcschema_output",
 "schema_version": 1,
 "molecule": {
  "validated": true,
  "symbols": [
   "N",
   "C",
   "N",
   "C",
   "C",
   "O",
   "N",
   "C",
   "N",
   "N",
   "C",
   "H",
   "H",
   "H",
   "H",
   "H"
  ],
  "geometry": [
   1.9795091944628955,
   2.1064834459358144,
   -3.2710258001379717,
   3.442157215567254,
   0.04479224306132246,
   -3.8587306251553546,
   3.037755824719278,
   -1.9205229274148177,
   -2.447105209438357,
   1.1329118902577873,
   -1.157073572729854,
   -0.8011537541645827,
   -0.012262141769655663,
   -2.415631172284768,
   1.2151840216989083,
   0.2787556815508495,
   -4.558580598553946,
   1.9767436502584184,
   -1.7942738780763892,
   -0.8301509530256518,
   2.4756313473792826,
   -2.3895376075956043,
   1.6208238316931525,
   1.8860367962364304,
   -4.060055502500323,
   2.879381431248068,
   3.327897829960767,
   -1.3464087863428829,
   2.818910195233415,
   -0.06605029136148675,
   0.4469413067165973,
   1.3279162822471884,
   -1.2830339161563362,
   1.9190379584482444,
   3.80723695884786,
   -4.140299817848581,
   -2.720239679550724,
   -1.6994249707362516,
   3.9722944387418746,
   4.817877834900553,
   0.1317196448323844,
   -5.370511525521616,
   -4.434221275340973,
   4.678400702683921,
   2.8233409544635233,
   -4.866968558070816,
   2.102703993684897,
   4.9095985969689675
  ],
  "name": "C5H5N5O",
  "molecular_charge": 0.0,
  "molecular_multiplicity": 1,
  "masses": [
   14.00307400443,
   12.0,
   14.00307400443,
   12.0,
   12.0,
   15.99491461957,
   14.00307400443,
   12.0,
   14.00307400443,
   14.00307400443,
   12.0,
   1.00782503223,
   1.00782503223,
   1.00782503223,
   1.00782503223,
   1.00782503223
  ],
  "real": [
   true,
   true,
   true,
   true,
   true,
   true,
   true,
   true,
   true,
   true,
   true,
   true,
   true,
   true,
   true,
   true
  ],
  "atom_labels": [
   "",
   "",
   "",
   "",
   "",
   "",
   "",
   "",
   "",
   "",
   "",
   "",
   "",
   "",
   "",
   ""
  ],
  "atomic_numbers": [
   7,
   6,
   7,
   6,
   6,
   8,
   7,
   6,
   7,
   7,
   6,
   1,
   1,
   1,
   1,
   1
  ],
  "mass_numbers": [
   14,
   12,
   14,
   12,
   12,
   16,
   14,
   12,
   14,
   14,
   12,
   1,
   1,
   1,
   1,
   1
  ],
  "fragments": [
   [
    0,
    1,
    2,
    3,
    4,
    5,
    6,
    7,
    8,
    9,
    10,
    11,
    12,
    13,
    14,
    15
   ]
  ],
  "fragment_charges": [
   0.0
  ],
  "fragment_multiplicities": [
   1
  ],
  "fix_com": false,
  "fix_orientation": false,
  "provenance": {
   "creator": "QCElemental",
   "version": "v0.19.0",
   "routine": "qcelemental.molparse.from_string"
  }
 },
 "driver": "energy",
 "model": {
  "method": "dsd-blyp-d3bj",
  "basis": "pcseg-1"
 },
 "keywords": {},
 "protocols": {},
 "extras": {
  "qcvars": {
   "2-BODY DISPERSION CORRECTION ENERGY": -0.01700774,
   "CURRENT DIPOLE X": -3.385798043591068,
   "CURRENT DIPOLE Y": 6.368206757241344,
   "CURRENT DIPOLE Z": 0.9933214101947442,
   "CURRENT ENERGY": -541.6612688597542,
   "CURRENT REFERENCE ENERGY": -540.8133846679779,
   "DFT FUNCTIONAL TOTAL ENERGY": -540.7963769279778,
   "DFT TOTAL ENERGY": -541.6612688597542,
   "DFT VV10 ENERGY": 0.0,
   "DFT XC ENERGY": -21.57759869761002,
   "DISPERSION CORRECTION ENERGY": -0.01700774,
   "DOUBLE-HYBRID CORRECTION ENERGY": -0.8478841917763568,
   "DSD-BLYP-D3BJ DISPERSION CORRECTION ENERGY": -0.01700774,
   "DSD-BLYP-D3BJ DOUBLE-HYBRID CORRECTION ENERGY": -0.8478841917763568,
   "DSD-BLYP-D3BJ TOTAL ENERGY": -541.6612688597542,
   "NUCLEAR REPULSION ENERGY": 594.6969861901529,
   "ONE-ELECTRON ENERGY": -1914.8987092394527,
   "PCM POLARIZATION ENERGY": 0.0,
   "PE ENERGY": 0.0,
   "SCF DIPOLE X": -3.385798043591068,
   "SCF DIPOLE Y": 6.368206757241344,
   "SCF DIPOLE Z": 0.9933214101947442,
   "SCF ITERATION ENERGY": -540.8133846679779,
   "SCF ITERATIONS": 9.0,
   "SCF TOTAL ENERGY": -540.8133846679779,
   "TWO-ELECTRON ENERGY": 800.982944818932,
   "XC GRID RADIAL POINTS": 75.0,
   "XC GRID SPHERICAL POINTS": 302.0,
   "XC GRID TOTAL POINTS": 334998.0,
   "CURRENT DIPOLE": [
    -1.3320754479923638,
    2.5054453218547663,
    0.3908027134076111
   ],
   "SCF DIPOLE": [
    -1.3320754479923638,
    2.5054453218547663,
    0.3908027134076111
   ]
  }
 },
 "provenance": {
  "creator": "Psi4",
  "version": "1.4a2.dev923",
  "routine": "psi4.schema_runner.run_qcschema",
  "qcengine_version": "v0.17.0",
  "wall_time": 12.74028730392456,
  "memory": 100.0,
  "cpu": "AMD EPYC Processor (with IBPB)",
  "hostname": "bignimbus",
  "nthreads": 16,
  "username": "ubuntu"
 },
 "properties": {
  "calcinfo_nbasis": 179,
  "calcinfo_nmo": 179,
  "calcinfo_nalpha": 39,
  "calcinfo_nbeta": 39,
  "calcinfo_natom": 16,
  "nuclear_repulsion_energy": 594.6969861901529,
  "return_energy": -541.6612688597542,
  "scf_one_electron_energy": -1914.8987092394527,
  "scf_two_electron_energy": 800.982944818932,
  "scf_xc_energy": -21.57759869761002,
  "scf_dispersion_correction_energy": -0.01700774,
  "scf_dipole_moment": [
   -1.3320754479923638,
   2.5054453218547663,
   0.3908027134076111
  ],
  "scf_total_energy": -540.8133846679779,
  "scf_iterations": 9
 },
 "wavefunction": null,
 "return_result": -541.6612688597542,
 "stdout": "\n    -----------------------------------------------------------------------\n          Psi4: An Open-Source Ab Initio Electronic Structure Package\n                               Psi4 1.4a2.dev923 \n\n                         Git: Rev {master} 5de566e \n\n\n    D. G. A. Smith, L. A. Burns, A. C. Simmonett, R. M. Parrish,\n    M. C. Schieber, R. Galvelis, P. Kraus, H. Kruse, R. Di Remigio,\n    A. Alenaizan, A. M. James, S. Lehtola, J. P. Misiewicz, M. Scheurer,\n    R. A. Shaw, J. B. Schriber, Y. Xie, Z. L. Glick, D. A. Sirianni,\n    J. S. O'Brien, J. M. Waldrop, A. Kumar, E. G. Hohenstein,\n    B. P. Pritchard, B. R. Brooks, H. F. Schaefer III, A. Yu. Sokolov,\n    K. Patkowski, A. E. DePrince III, U. Bozkaya, R. A. King,\n    F. A. Evangelista, J. M. Turney, T. D. Crawford, C. D. Sherrill,\n    J. Chem. Phys. 152(18) 184108 (2020). https://doi.org/10.1063/5.0006002\n\n                            Additional Code Authors\n    E. T. Seidl, C. L. Janssen, E. F. Valeev, M. L. Leininger,\n    J. F. Gonthier, R. M. Richard, H. R. McAlexander, M. Saitow, X. Wang,\n    P. Verma, and M. H. Lechner\n\n             Previous Authors, Complete List of Code Contributors,\n                       and Citations for Specific Modules\n    https://github.com/psi4/psi4/blob/master/codemeta.json\n    https://github.com/psi4/psi4/graphs/contributors\n    http://psicode.org/psi4manual/master/introduction.html#citing-psifour\n\n    -----------------------------------------------------------------------\n\n\n    Psi4 started on: Wednesday, 12 May 2021 04:46PM\n\n    Process ID: 2165853\n    Host:       bignimbus\n    PSIDATADIR: /home/ubuntu/pk/Applications/miniconda3/envs/psi4-1.4a2.dev923/share/psi4\n    Memory:     93.1 GiB\n    Threads:    16\n    \n  ==> Input QCSchema <==\n\n--------------------------------------------------------------------------\n{'driver': 'energy',\n 'extras': {},\n 'id': None,\n 'keywords': {},\n 'model': {'basis': 'pcseg-1', 'method': 'dsd-blyp-d3bj'},\n 'molecule': {'atom_labels': ['', '', '', '', '', '', '', '', '', '', '', '', '', '', '', ''],\n              'atomic_numbers': [7, 6, 7, 6, 6, 8, 7, 6, 7, 7, 6, 1, 1, 1, 1, 1],\n              'fix_com': False,\n              'fix_orientation': False,\n              'fragment_charges': [0.0],\n              'fragment_multiplicities': [1],\n              'fragments': [[0, 1, 2, 3, 4, 5, 6, 7, 8, 9, 10, 11, 12, 13, 14, 15]],\n              'geometry': [1.9795091944628904, 2.10648344593581, -3.2710258001380055, 3.4421572155672493,\n                           0.044792243061317905, -3.8587306251553883, 3.037755824719273, -1.9205229274148223,\n                           -2.4471052094383907, 1.1329118902577822, -1.1570735727298587, -0.8011537541646163,\n                           -0.012262141769660673, -2.4156311722847725, 1.2151840216988745, 0.2787556815508445,\n                           -4.5585805985539505, 1.9767436502583846, -1.7942738780763943, -0.8301509530256563,\n                           2.475631347379249, -2.389537607595609, 1.6208238316931478, 1.8860367962363966,\n                           -4.060055502500329, 2.8793814312480634, 3.327897829960733, -1.346408786342888,\n                           2.8189101952334106, -0.06605029136152041, 0.4469413067165923, 1.3279162822471837,\n                           -1.28303391615637, 1.9190379584482393, 3.8072369588478554, -4.140299817848614,\n                           -2.720239679550729, -1.6994249707362563, 3.972294438741841, 4.817877834900548,\n                           0.13171964483237986, -5.37051152552165, -4.434221275340978, 4.678400702683916,\n                           2.8233409544634895, -4.8669685580708215, 2.1027039936848926, 4.909598596968934],\n              'mass_numbers': [14, 12, 14, 12, 12, 16, 14, 12, 14, 14, 12, 1, 1, 1, 1, 1],\n              'masses': [14.00307400443, 12.0, 14.00307400443, 12.0, 12.0, 15.99491461957, 14.00307400443, 12.0,\n                         14.00307400443, 14.00307400443, 12.0, 1.00782503223, 1.00782503223, 1.00782503223,\n                         1.00782503223, 1.00782503223],\n              'molecular_charge': 0.0,\n              'molecular_multiplicity': 1,\n              'name': 'C5H5N5O',\n              'provenance': {'creator': 'QCElemental',\n                             'routine': 'qcelemental.molparse.from_string',\n                             'version': 'v0.19.0'},\n              'real': [True, True, True, True, True, True, True, True, True, True, True, True, True, True, True, True],\n              'symbols': ['N', 'C', 'N', 'C', 'C', 'O', 'N', 'C', 'N', 'N', 'C', 'H', 'H', 'H', 'H', 'H'],\n              'validated': True},\n 'protocols': {},\n 'provenance': {'creator': 'QCElemental', 'routine': 'qcelemental.models.results', 'version': 'v0.17.0'},\n 'schema_name': 'qcschema_input',\n 'schema_version': 1}\n--------------------------------------------------------------------------\n\nScratch directory: /home/ubuntu/pk/scratch/tmpe347xxo1_psi_scratch/\n\n*** tstart() called on bignimbus\n*** at Wed May 12 16:46:14 2021\n\n   => Loading Basis Set <=\n\n    Name: PCSEG-1\n    Role: ORBITAL\n    Keyword: BASIS\n    atoms 1, 3, 7, 9-10 entry N          line   111 file /home/ubuntu/pk/Applications/miniconda3/envs/psi4-1.4a2.dev923/share/psi4/basis/pcseg-1.gbs \n    atoms 2, 4-5, 8, 11 entry C          line    90 file /home/ubuntu/pk/Applications/miniconda3/envs/psi4-1.4a2.dev923/share/psi4/basis/pcseg-1.gbs \n    atoms 6             entry O          line   132 file /home/ubuntu/pk/Applications/miniconda3/envs/psi4-1.4a2.dev923/share/psi4/basis/pcseg-1.gbs \n    atoms 12-16         entry H          line    13 file /home/ubuntu/pk/Applications/miniconda3/envs/psi4-1.4a2.dev923/share/psi4/basis/pcseg-1.gbs \n\n   => DSD-BLYP-D3BJ: Empirical Dispersion <=\n\n    Grimme's -D3 (BJ-damping) Dispersion Correction\n    Grimme S.; Ehrlich S.; Goerigk L. (2011), J. Comput. Chem., 32: 1456\n    Parametrisation from:    S. Kozuch, J.M.L. Martin, J. Comp. Chem., 34, 2327-2344, 2013\n\n        s6 =       0.570000\n        s8 =       0.000000\n        a1 =       0.000000\n        a2 =       5.400000\n\n\n         ---------------------------------------------------------\n                                   SCF\n               by Justin Turney, Rob Parrish, Andy Simmonett\n                          and Daniel G. A. Smith\n                              RKS Reference\n                       16 Threads,  95367 MiB Core\n         ---------------------------------------------------------\n\n  ==> Geometry <==\n\n    Molecular point group: c1\n    Full point group: C1\n\n    Geometry (in Bohr), charge = 0, multiplicity = 1:\n\n       Center              X                  Y                   Z               Mass       \n    ------------   -----------------  -----------------  -----------------  -----------------\n         N            1.979509194463     2.106483445936    -3.271025800138    14.003074004430\n         C            3.442157215567     0.044792243061    -3.858730625155    12.000000000000\n         N            3.037755824719    -1.920522927415    -2.447105209438    14.003074004430\n         C            1.132911890258    -1.157073572730    -0.801153754165    12.000000000000\n         C           -0.012262141770    -2.415631172285     1.215184021699    12.000000000000\n         O            0.278755681551    -4.558580598554     1.976743650258    15.994914619570\n         N           -1.794273878076    -0.830150953026     2.475631347379    14.003074004430\n         C           -2.389537607596     1.620823831693     1.886036796236    12.000000000000\n         N           -4.060055502500     2.879381431248     3.327897829961    14.003074004430\n         N           -1.346408786343     2.818910195233    -0.066050291361    14.003074004430\n         C            0.446941306717     1.327916282247    -1.283033916156    12.000000000000\n         H            1.919037958448     3.807236958848    -4.140299817849     1.007825032230\n         H           -2.720239679551    -1.699424970736     3.972294438742     1.007825032230\n         H            4.817877834901     0.131719644832    -5.370511525522     1.007825032230\n         H           -4.434221275341     4.678400702684     2.823340954464     1.007825032230\n         H           -4.866968558071     2.102703993685     4.909598596969     1.007825032230\n\n  Running in c1 symmetry.\n\n  Rotational constants: A =      0.06486  B =      0.03693  C =      0.02354 [cm^-1]\n  Rotational constants: A =   1944.44089  B =   1107.15421  C =    705.76789 [MHz]\n  Nuclear repulsion =  594.696986190152870\n\n  Charge       = 0\n  Multiplicity = 1\n  Electrons    = 78\n  Nalpha       = 39\n  Nbeta        = 39\n\n  ==> Algorithm <==\n\n  SCF Algorithm Type is DF.\n  DIIS enabled.\n  MOM disabled.\n  Fractional occupation disabled.\n  Guess Type is SAD.\n  Energy threshold   = 1.00e-06\n  Density threshold  = 1.00e-06\n  Integral threshold = 0.00e+00\n\n  ==> Primary Basis <==\n\n  Basis Set: PCSEG-1\n    Blend: PCSEG-1\n    Number of shells: 81\n    Number of basis function: 179\n    Number of Cartesian functions: 190\n    Spherical Harmonics?: true\n    Max angular momentum: 2\n\n  ==> DFT Potential <==\n\n   => Composite Functional: DSD-BLYP-D3BJ <= \n\n    DSD-BLYP-D3BJ Dispersion-corrected SCS Double Hybrid XC Functional\n\n    S. Kozuch, J.M.L. Martin, J. Comp. Chem., 34, 2327-2344, 2013\n\n\n    Deriv               =              1\n    GGA                 =           TRUE\n    Meta                =          FALSE\n\n    Exchange Hybrid     =           TRUE\n    MP2 Hybrid          =           TRUE\n\n   => Exchange Functionals <=\n\n    0.2900     XC_GGA_X_B88\n\n   => Exact (HF) Exchange <=\n\n    0.7100               HF \n\n   => Correlation Functionals <=\n\n    0.5400     XC_GGA_C_LYP\n\n   => MP2 Correlation <=\n\n    MP2 SCS Hybrid      =           TRUE\n    MP2 OS Alpha        =       0.470000\n    MP2 SS Alpha        =       0.400000\n\n   => LibXC Density Thresholds  <==\n\n    XC_GGA_C_LYP:  1.00E-32 \n    XC_GGA_X_B88:  1.00E-25 \n\n   => Molecular Quadrature <=\n\n    Radial Scheme          =       TREUTLER\n    Pruning Scheme         =           NONE\n    Nuclear Scheme         =       TREUTLER\n\n    BS radius alpha        =              1\n    Pruning alpha          =              1\n    Radial Points          =             75\n    Spherical Points       =            302\n    Total Points           =         334998\n    Total Blocks           =           2502\n    Max Points             =            256\n    Max Functions          =            167\n    Weights Tolerance      =       1.00E-15\n\n   => Loading Basis Set <=\n\n    Name: (PCSEG-1 AUX)\n    Role: JKFIT\n    Keyword: DF_BASIS_SCF\n    atoms 1, 3, 7, 9-10 entry N          line   258 file /home/ubuntu/pk/Applications/miniconda3/envs/psi4-1.4a2.dev923/share/psi4/basis/def2-universal-jkfit.gbs \n    atoms 2, 4-5, 8, 11 entry C          line   198 file /home/ubuntu/pk/Applications/miniconda3/envs/psi4-1.4a2.dev923/share/psi4/basis/def2-universal-jkfit.gbs \n    atoms 6             entry O          line   318 file /home/ubuntu/pk/Applications/miniconda3/envs/psi4-1.4a2.dev923/share/psi4/basis/def2-universal-jkfit.gbs \n    atoms 12-16         entry H          line    18 file /home/ubuntu/pk/Applications/miniconda3/envs/psi4-1.4a2.dev923/share/psi4/basis/def2-universal-jkfit.gbs \n\n  ==> Integral Setup <==\n\n  DFHelper Memory: AOs need 0.216 GiB; user supplied 68.721 GiB. Using in-core AOs.\n\n  ==> MemDFJK: Density-Fitted J/K Matrices <==\n\n    J tasked:                   Yes\n    K tasked:                   Yes\n    wK tasked:                   No\n    OpenMP threads:              16\n    Memory [MiB]:             70370\n    Algorithm:                 Core\n    Schwarz Cutoff:           1E-12\n    Mask sparsity (%):      10.0746\n    Fitting Condition:        1E-10\n\n   => Auxiliary Basis Set <=\n\n  Basis Set: (PCSEG-1 AUX)\n    Blend: DEF2-UNIVERSAL-JKFIT\n    Number of shells: 305\n    Number of basis function: 927\n    Number of Cartesian functions: 1103\n    Spherical Harmonics?: true\n    Max angular momentum: 4\n\n  Cached 100.0% of DFT collocation blocks in 1.128 [GiB].\n\n  Minimum eigenvalue in the overlap matrix is 9.5370649157E-04.\n  Reciprocal condition number of the overlap matrix is 1.5714793540E-04.\n    Using symmetric orthogonalization.\n\n  ==> Pre-Iterations <==\n\n  SCF Guess: Superposition of Atomic Densities via on-the-fly atomic UHF (no occupation information).\n\n   -------------------------\n    Irrep   Nso     Nmo    \n   -------------------------\n     A        179     179 \n   -------------------------\n    Total     179     179\n   -------------------------\n\n  ==> Iterations <==\n\n                           Total Energy        Delta E     RMS |[F,P]|\n\n   @DF-RKS iter SAD:  -540.73933086884188   -5.40739e+02   0.00000e+00 \n   @DF-RKS iter   1:  -540.49239519620050    2.46936e-01   4.59360e-03 DIIS\n   @DF-RKS iter   2:  -540.62907108003537   -1.36676e-01   3.80364e-03 DIIS\n   @DF-RKS iter   3:  -540.80588440907013   -1.76813e-01   7.09035e-04 DIIS\n   @DF-RKS iter   4:  -540.81242684309473   -6.54243e-03   2.38381e-04 DIIS\n   @DF-RKS iter   5:  -540.81331595145832   -8.89108e-04   5.11999e-05 DIIS\n   @DF-RKS iter   6:  -540.81337037418893   -5.44227e-05   1.98516e-05 DIIS\n   @DF-RKS iter   7:  -540.81338209708645   -1.17229e-05   8.84152e-06 DIIS\n   @DF-RKS iter   8:  -540.81338433859901   -2.24151e-06   3.29077e-06 DIIS\n   @DF-RKS iter   9:  -540.81338466797786   -3.29379e-07   8.77116e-07 DIIS\n  Energy and wave function converged.\n\n\n  ==> Post-Iterations <==\n\n    Orbital Energies [Eh]\n    ---------------------\n\n    Doubly Occupied:                                                      \n\n       1A    -19.997265     2A    -15.180705     3A    -15.179763  \n       4A    -15.168528     5A    -15.114059     6A    -15.105110  \n       7A    -11.015321     8A    -10.977095     9A    -10.945158  \n      10A    -10.926106    11A    -10.865766    12A     -1.284883  \n      13A     -1.249643    14A     -1.231405    15A     -1.127378  \n      16A     -1.107350    17A     -1.077654    18A     -0.952918  \n      19A     -0.835324    20A     -0.817441    21A     -0.770870  \n      22A     -0.741556    23A     -0.685970    24A     -0.679118  \n      25A     -0.652607    26A     -0.623394    27A     -0.600690  \n      28A     -0.576784    29A     -0.550466    30A     -0.548504  \n      31A     -0.546868    32A     -0.503269    33A     -0.435533  \n      34A     -0.406964    35A     -0.388001    36A     -0.383986  \n      37A     -0.376420    38A     -0.370453    39A     -0.276043  \n\n    Virtual:                                                              \n\n      40A      0.074642    41A      0.075970    42A      0.089511  \n      43A      0.107194    44A      0.125613    45A      0.137662  \n      46A      0.154252    47A      0.158022    48A      0.271053  \n      49A      0.281578    50A      0.287038    51A      0.303534  \n      52A      0.314268    53A      0.349913    54A      0.368154  \n      55A      0.391727    56A      0.411091    57A      0.430144  \n      58A      0.462468    59A      0.486457    60A      0.492263  \n      61A      0.504639    62A      0.539125    63A      0.550136  \n      64A      0.581057    65A      0.588515    66A      0.601203  \n      67A      0.602292    68A      0.623218    69A      0.638413  \n      70A      0.659954    71A      0.686993    72A      0.694694  \n      73A      0.715943    74A      0.718127    75A      0.769562  \n      76A      0.790095    77A      0.797005    78A      0.811957  \n      79A      0.832641    80A      0.835298    81A      0.849642  \n      82A      0.858328    83A      0.872396    84A      0.892995  \n      85A      0.896984    86A      0.910351    87A      0.945430  \n      88A      0.966624    89A      0.996428    90A      1.011712  \n      91A      1.037536    92A      1.083895    93A      1.089313  \n      94A      1.121603    95A      1.140709    96A      1.169576  \n      97A      1.234829    98A      1.259707    99A      1.304612  \n     100A      1.340680   101A      1.359480   102A      1.386616  \n     103A      1.391970   104A      1.453034   105A      1.476606  \n     106A      1.495741   107A      1.541392   108A      1.552774  \n     109A      1.567606   110A      1.583363   111A      1.601299  \n     112A      1.613616   113A      1.624391   114A      1.632760  \n     115A      1.669318   116A      1.710396   117A      1.825510  \n     118A      1.870741   119A      1.951230   120A      1.976085  \n     121A      2.021089   122A      2.030478   123A      2.039166  \n     124A      2.063430   125A      2.072866   126A      2.078701  \n     127A      2.109256   128A      2.139038   129A      2.150950  \n     130A      2.173930   131A      2.179230   132A      2.207197  \n     133A      2.220277   134A      2.259062   135A      2.278596  \n     136A      2.302760   137A      2.341602   138A      2.364784  \n     139A      2.393663   140A      2.404645   141A      2.439498  \n     142A      2.493305   143A      2.501732   144A      2.531298  \n     145A      2.554433   146A      2.575600   147A      2.601581  \n     148A      2.614305   149A      2.622594   150A      2.643410  \n     151A      2.656728   152A      2.664353   153A      2.691234  \n     154A      2.713503   155A      2.796538   156A      2.820204  \n     157A      2.841885   158A      2.847337   159A      2.857037  \n     160A      2.910729   161A      2.919321   162A      2.957171  \n     163A      2.985013   164A      3.007478   165A      3.038215  \n     166A      3.131705   167A      3.155303   168A      3.160385  \n     169A      3.195532   170A      3.293596   171A      3.310186  \n     172A      3.400234   173A      3.464002   174A      3.484895  \n     175A      3.558419   176A      3.612589   177A      3.828624  \n     178A      3.865727   179A      3.928452  \n\n    Final Occupation by Irrep:\n              A \n    DOCC [    39 ]\n\n  @DF-RKS Final Energy:  -540.81338466797786\n\n   => Energetics <=\n\n    Nuclear Repulsion Energy =            594.6969861901528702\n    One-Electron Energy =               -1914.8987092394527281\n    Two-Electron Energy =                 800.9829448189319692\n    DFT Exchange-Correlation Energy =     -21.5775986976100214\n    Empirical Dispersion Energy =          -0.0170077400000000\n    VV10 Nonlocal Energy =                  0.0000000000000000\n    Total Energy =                       -540.8133846679778571\n\nComputation Completed\n\n\nProperties will be evaluated at   0.000000,   0.000000,   0.000000 [a0]\n\nProperties computed using the SCF density matrix\n\n  Nuclear Dipole Moment: [e a0]\n     X:    -2.6175      Y:     4.4557      Z:     1.0936\n\n  Electronic Dipole Moment: [e a0]\n     X:     1.2854      Y:    -1.9502      Z:    -0.7028\n\n  Dipole Moment: [e a0]\n     X:    -1.3321      Y:     2.5054      Z:     0.3908     Total:     2.8643\n\n  Dipole Moment: [D]\n     X:    -3.3858      Y:     6.3682      Z:     0.9933     Total:     7.2804\n\n\n*** tstop() called on bignimbus at Wed May 12 16:46:21 2021\nModule time:\n\tuser time   =      67.09 seconds =       1.12 minutes\n\tsystem time =       3.37 seconds =       0.06 minutes\n\ttotal time  =          7 seconds =       0.12 minutes\nTotal time:\n\tuser time   =      67.09 seconds =       1.12 minutes\n\tsystem time =       3.37 seconds =       0.06 minutes\n\ttotal time  =          7 seconds =       0.12 minutes\n\n*** tstart() called on bignimbus\n*** at Wed May 12 16:46:21 2021\n\n   => Loading Basis Set <=\n\n    Name: (PCSEG-1 AUX)\n    Role: RIFIT\n    Keyword: DF_BASIS_MP2\n    atoms 1, 3, 7, 9-10 entry N          line   193 file /home/ubuntu/pk/Applications/miniconda3/envs/psi4-1.4a2.dev923/share/psi4/basis/def2-svp-ri.gbs \n    atoms 2, 4-5, 8, 11 entry C          line   153 file /home/ubuntu/pk/Applications/miniconda3/envs/psi4-1.4a2.dev923/share/psi4/basis/def2-svp-ri.gbs \n    atoms 6             entry O          line   233 file /home/ubuntu/pk/Applications/miniconda3/envs/psi4-1.4a2.dev923/share/psi4/basis/def2-svp-ri.gbs \n    atoms 12-16         entry H          line    22 file /home/ubuntu/pk/Applications/miniconda3/envs/psi4-1.4a2.dev923/share/psi4/basis/def2-svp-ri.gbs \n\n\t --------------------------------------------------------\n\t                          DF-MP2                         \n\t      2nd-Order Density-Fitted Moller-Plesset Theory     \n\t              RMP2 Wavefunction,  16 Threads             \n\t                                                         \n\t        Rob Parrish, Justin Turney, Andy Simmonett,      \n\t           Ed Hohenstein, and C. David Sherrill          \n\t --------------------------------------------------------\n\n   => Auxiliary Basis Set <=\n\n  Basis Set: (PCSEG-1 AUX)\n    Blend: DEF2-SVP-RI\n    Number of shells: 206\n    Number of basis function: 598\n    Number of Cartesian functions: 680\n    Spherical Harmonics?: true\n    Max angular momentum: 3\n\n\t --------------------------------------------------------\n\t                 NBF =   179, NAUX =   598\n\t --------------------------------------------------------\n\t   CLASS    FOCC     OCC    AOCC    AVIR     VIR    FVIR\n\t   PAIRS       0      39      39     140     140       0\n\t --------------------------------------------------------\n\n\t-----------------------------------------------------------\n\t ==================> DF-MP2 Energies <==================== \n\t-----------------------------------------------------------\n\t Reference Energy          =    -540.8133846679778571 [Eh]\n\t Singles Energy            =      -0.0000000000000000 [Eh]\n\t Same-Spin Energy          =      -0.5269681791165679 [Eh]\n\t Opposite-Spin Energy      =      -1.3555253619781482 [Eh]\n\t Correlation Energy        =      -1.8824935410947161 [Eh]\n\t Total Energy              =    -542.6958782090725890 [Eh]\n\t-----------------------------------------------------------\n\t ================> DF-SCS-MP2 Energies <================== \n\t-----------------------------------------------------------\n\t SCS Same-Spin Scale       =       0.4000000000000000 [-]\n\t SCS Opposite-Spin Scale   =       0.4700000000000000 [-]\n\t SCS Same-Spin Energy      =      -0.2107872716466272 [Eh]\n\t SCS Opposite-Spin Energy  =      -0.6370969201297296 [Eh]\n\t SCS Correlation Energy    =      -1.8022864940793004 [Eh]\n\t SCS Total Energy          =    -542.6156711620571969 [Eh]\n\t-----------------------------------------------------------\n\n\n\n    DSD-BLYP-D3BJ Energy Summary\n    ----------------------------\n    DFT Reference Energy                  =  -540.8133846679778571\n    Scaled MP2 Correlation                =    -0.8478841917763568\n    @Final double-hybrid DFT total energy =  -541.6612688597541592\n\n\n*** tstop() called on bignimbus at Wed May 12 16:46:22 2021\nModule time:\n\tuser time   =      16.85 seconds =       0.28 minutes\n\tsystem time =       0.57 seconds =       0.01 minutes\n\ttotal time  =          1 seconds =       0.02 minutes\nTotal time:\n\tuser time   =      83.95 seconds =       1.40 minutes\n\tsystem time =       3.94 seconds =       0.07 minutes\n\ttotal time  =          8 seconds =       0.13 minutes\n\n    Psi4 stopped on: Wednesday, 12 May 2021 04:46PM\n    Psi4 wall time for execution: 0:00:08.05\n\n*** Psi4 exiting successfully. Buy a developer a beer!\n",
 "stderr": null,
 "success": true,
 "error": null,
 "tag": "dsd-blyp-d3bj pcseg-1 ggg_a"
}