{
 "id": null,
 "schema_name": "qcschema_output",
 "schema_version": 1,
 "molecule": {
  "validated": true,
  "symbols": [
   "C",
   "C",
   "C",
   "C",
   "C",
   "C",
   "C",
   "C",
   "C",
   "N",
   "N",
   "N",
   "N",
   "N",
   "N",
   "N",
   "N",
   "O",
   "O",
   "H",
   "H",
   "H",
   "H",
   "H",
   "H",
   "H",
   "H",
   "H",
   "H"
  ],
  "geometry": [
   -5.385731230938672,
   -0.06512979195590196,
   -2.408510240614475,
   -9.333369107020077,
   -0.3920524116601065,
   -0.08225738017588884,
   -8.074811507465164,
   -0.25599213062714243,
   2.149509173989806,
   -5.368723695809551,
   -0.06324006583044417,
   2.039905058713252,
   2.48686780771864,
   0.11061473771167618,
   2.011559166831385,
   2.496316438345929,
   0.18242433047907314,
   -2.6768513504294873,
   6.185061835239609,
   0.09171747645709827,
   -0.6794108358205626,
   5.168389179743299,
   0.10872501158621839,
   1.7658947705218673,
   9.155711304459315,
   -0.055681161328613,
   2.2742310982700227,
   -8.042686163332379,
   -0.2843380225090102,
   -2.304575303714295,
   -4.125283905258301,
   0.0482537755715673,
   -0.17674368644878027,
   -3.98733389809988,
   0.00856952693695368,
   4.156398319226019,
   1.2925608964292925,
   0.15974761697357875,
   -0.3694957512454787,
   4.998313828452094,
   0.13518117734262747,
   -2.9300746512408358,
   7.056225579075669,
   0.01801815756424264,
   3.5819215770868396,
   8.756979091987713,
   0.006679800811495002,
   -0.3165834197326595,
   1.026109512739739,
   0.2920284457556277,
   -4.761219266809471,
   -4.359609944815071,
   -0.01032773431762512,
   -4.515554870499954,
   1.1886259595291122,
   0.04447432332065172,
   3.978764063432984,
   -8.927077990046644,
   -0.5243332404421541,
   -3.986431555371763,
   -11.362934965761784,
   -0.6225989989659614,
   -0.21075875670702118,
   -9.076366353957813,
   -0.37504487653098595,
   3.9277414580456225,
   -4.841490106806818,
   -0.27488939188172123,
   5.840144297008944,
   -2.0125700969964484,
   0.027466788191531595,
   4.078919548082249,
   -0.6840926307995956,
   0.13896062959354305,
   -0.3317012287363222,
   11.03976825154077,
   -0.17473390723245563,
   3.052798261958648,
   10.06466957080453,
   -0.19363116848703443,
   -1.6979732174423317,
   1.9218396962067494,
   0.025577062066073804,
   -6.426067983337818,
   -0.9127494919799929,
   0.1257325467153385,
   -4.691299400167532
  ],
  "name": "C9H10N8O2",
  "molecular_charge": 0.0,
  "molecular_multiplicity": 1,
  "masses": [
   12.0,
   12.0,
   12.0,
   12.0,
   12.0,
   12.0,
   12.0,
   12.0,
   12.0,
   14.00307400443,
   14.00307400443,
   14.00307400443,
   14.00307400443,
   14.00307400443,
   14.00307400443,
   14.00307400443,
   14.00307400443,
   15.99491461957,
   15.99491461957,
   1.00782503223,
   1.00782503223,
   1.00782503223,
   1.00782503223,
   1.00782503223,
   1.00782503223,
   1.00782503223,
   1.00782503223,
   1.00782503223,
   1.00782503223
  ],
  "real": [
   true,
   true,
   true,
   true,
   true,
   true,
   true,
   true,
   true,
   true,
   true,
   true,
   true,
   true,
   true,
   true,
   true,
   true,
   true,
   true,
   true,
   true,
   true,
   true,
   true,
   true,
   true,
   true,
   true
  ],
  "atom_labels": [
   "",
   "",
   "",
   "",
   "",
   "",
   "",
   "",
   "",
   "",
   "",
   "",
   "",
   "",
   "",
   "",
   "",
   "",
   "",
   "",
   "",
   "",
   "",
   "",
   "",
   "",
   "",
   "",
   ""
  ],
  "atomic_numbers": [
   6,
   6,
   6,
   6,
   6,
   6,
   6,
   6,
   6,
   7,
   7,
   7,
   7,
   7,
   7,
   7,
   7,
   8,
   8,
   1,
   1,
   1,
   1,
   1,
   1,
   1,
   1,
   1,
   1
  ],
  "mass_numbers": [
   12,
   12,
   12,
   12,
   12,
   12,
   12,
   12,
   12,
   14,
   14,
   14,
   14,
   14,
   14,
   14,
   14,
   16,
   16,
   1,
   1,
   1,
   1,
   1,
   1,
   1,
   1,
   1,
   1
  ],
  "fragments": [
   [
    0,
    1,
    2,
    3,
    4,
    5,
    6,
    7,
    8,
    9,
    10,
    11,
    12,
    13,
    14,
    15,
    16,
    17,
    18,
    19,
    20,
    21,
    22,
    23,
    24,
    25,
    26,
    27,
    28
   ]
  ],
  "fragment_charges": [
   0.0
  ],
  "fragment_multiplicities": [
   1
  ],
  "fix_com": false,
  "fix_orientation": false,
  "provenance": {
   "creator": "QCElemental",
   "version": "v0.19.0",
   "routine": "qcelemental.molparse.from_string"
  }
 },
 "driver": "energy",
 "model": {
  "method": "m062x-d3",
  "basis": "def2-svpd"
 },
 "keywords": {},
 "protocols": {},
 "extras": {
  "qcvars": {
   "2-BODY DISPERSION CORRECTION ENERGY": -0.00151367,
   "CURRENT DIPOLE X": -5.842829427250845,
   "CURRENT DIPOLE Y": -1.2253603569602811,
   "CURRENT DIPOLE Z": -1.5656062825895574,
   "CURRENT ENERGY": -936.5499757682479,
   "CURRENT REFERENCE ENERGY": -936.5499757682479,
   "DFT FUNCTIONAL TOTAL ENERGY": -936.5484620982479,
   "DFT TOTAL ENERGY": -936.5499757682479,
   "DFT VV10 ENERGY": 0.0,
   "DFT XC ENERGY": -60.10807950248386,
   "DISPERSION CORRECTION ENERGY": -0.00151367,
   "M06-2X-D3 DISPERSION CORRECTION ENERGY": -0.00151367,
   "NUCLEAR REPULSION ENERGY": 1391.394659364626,
   "ONE-ELECTRON ENERGY": -4037.3648576684504,
   "PCM POLARIZATION ENERGY": 0.0,
   "PE ENERGY": 0.0,
   "SCF DIPOLE X": -5.842829427250845,
   "SCF DIPOLE Y": -1.2253603569602811,
   "SCF DIPOLE Z": -1.5656062825895574,
   "SCF ITERATION ENERGY": -936.5499757682479,
   "SCF ITERATIONS": 9.0,
   "SCF TOTAL ENERGY": -936.5499757682479,
   "TWO-ELECTRON ENERGY": 1769.5298157080604,
   "XC GRID RADIAL POINTS": 75.0,
   "XC GRID SPHERICAL POINTS": 302.0,
   "XC GRID TOTAL POINTS": 602805.0,
   "CURRENT DIPOLE": [
    -2.2987459755848825,
    -0.4820938595376815,
    -0.6159569068827864
   ],
   "SCF DIPOLE": [
    -2.2987459755848825,
    -0.4820938595376815,
    -0.6159569068827864
   ]
  }
 },
 "provenance": {
  "creator": "Psi4",
  "version": "1.4a2.dev923",
  "routine": "psi4.schema_runner.run_qcschema",
  "nthreads": 16,
  "qcengine_version": "v0.17.0",
  "cpu": "AMD EPYC Processor (with IBPB)",
  "hostname": "bignimbus",
  "memory": 64.0,
  "wall_time": 48.137409687042236,
  "username": "ubuntu"
 },
 "properties": {
  "calcinfo_nbasis": 466,
  "calcinfo_nmo": 466,
  "calcinfo_nalpha": 68,
  "calcinfo_nbeta": 68,
  "calcinfo_natom": 29,
  "nuclear_repulsion_energy": 1391.394659364626,
  "return_energy": -936.5499757682479,
  "scf_one_electron_energy": -4037.3648576684504,
  "scf_two_electron_energy": 1769.5298157080604,
  "scf_xc_energy": -60.10807950248386,
  "scf_dispersion_correction_energy": -0.00151367,
  "scf_dipole_moment": [
   -2.2987459755848825,
   -0.4820938595376815,
   -0.6159569068827864
  ],
  "scf_total_energy": -936.5499757682479,
  "scf_iterations": 9
 },
 "wavefunction": null,
 "return_result": -936.5499757682479,
 "stdout": "\n    -----------------------------------------------------------------------\n          Psi4: An Open-Source Ab Initio Electronic Structure Package\n                               Psi4 1.4a2.dev923 \n\n                         Git: Rev {master} 5de566e \n\n\n    D. G. A. Smith, L. A. Burns, A. C. Simmonett, R. M. Parrish,\n    M. C. Schieber, R. Galvelis, P. Kraus, H. Kruse, R. Di Remigio,\n    A. Alenaizan, A. M. James, S. Lehtola, J. P. Misiewicz, M. Scheurer,\n    R. A. Shaw, J. B. Schriber, Y. Xie, Z. L. Glick, D. A. Sirianni,\n    J. S. O'Brien, J. M. Waldrop, A. Kumar, E. G. Hohenstein,\n    B. P. Pritchard, B. R. Brooks, H. F. Schaefer III, A. Yu. Sokolov,\n    K. Patkowski, A. E. DePrince III, U. Bozkaya, R. A. King,\n    F. A. Evangelista, J. M. Turney, T. D. Crawford, C. D. Sherrill,\n    J. Chem. Phys. 152(18) 184108 (2020). https://doi.org/10.1063/5.0006002\n\n                            Additional Code Authors\n    E. T. Seidl, C. L. Janssen, E. F. Valeev, M. L. Leininger,\n    J. F. Gonthier, R. M. Richard, H. R. McAlexander, M. Saitow, X. Wang,\n    P. Verma, and M. H. Lechner\n\n             Previous Authors, Complete List of Code Contributors,\n                       and Citations for Specific Modules\n    https://github.com/psi4/psi4/blob/master/codemeta.json\n    https://github.com/psi4/psi4/graphs/contributors\n    http://psicode.org/psi4manual/master/introduction.html#citing-psifour\n\n    -----------------------------------------------------------------------\n\n\n    Psi4 started on: Saturday, 24 April 2021 12:36PM\n\n    Process ID: 3793101\n    Host:       bignimbus\n    PSIDATADIR: /home/ubuntu/pk/Applications/miniconda3/envs/psi4-1.4a2.dev923/share/psi4\n    Memory:     59.6 GiB\n    Threads:    16\n    \n  ==> Input QCSchema <==\n\n--------------------------------------------------------------------------\n{'driver': 'energy',\n 'extras': {},\n 'id': None,\n 'keywords': {},\n 'model': {'basis': 'def2-svpd', 'method': 'm062x-d3'},\n 'molecule': {'atom_labels': ['', '', '', '', '', '', '', '', '', '', '', '', '', '', '', '', '', '', '', '', '', '',\n                              '', '', '', '', '', '', ''],\n              'atomic_numbers': [6, 6, 6, 6, 6, 6, 6, 6, 6, 7, 7, 7, 7, 7, 7, 7, 7, 8, 8, 1, 1, 1, 1, 1, 1, 1, 1, 1, 1],\n              'fix_com': False,\n              'fix_orientation': False,\n              'fragment_charges': [0.0],\n              'fragment_multiplicities': [1],\n              'fragments': [[0, 1, 2, 3, 4, 5, 6, 7, 8, 9, 10, 11, 12, 13, 14, 15, 16, 17, 18, 19, 20, 21, 22, 23, 24,\n                             25, 26, 27, 28]],\n              'geometry': [-5.3857312309386725, -0.06512979195590063, -2.408510240614475, -9.333369107020077,\n                           -0.3920524116601052, -0.08225738017588882, -8.074811507465164, -0.2559921306271411,\n                           2.149509173989806, -5.368723695809552, -0.06324006583044284, 2.039905058713252,\n                           2.4868678077186392, 0.11061473771167751, 2.011559166831385, 2.496316438345928,\n                           0.18242433047907447, -2.6768513504294873, 6.185061835239608, 0.0917174764570996,\n                           -0.6794108358205626, 5.168389179743298, 0.10872501158621972, 1.7658947705218673,\n                           9.155711304459315, -0.05568116132861167, 2.2742310982700227, -8.042686163332379,\n                           -0.28433802250900886, -2.304575303714295, -4.125283905258302, 0.048253775571568625,\n                           -0.17674368644878025, -3.9873338980998807, 0.008569526936955008, 4.156398319226019,\n                           1.2925608964292916, 0.1597476169735801, -0.3694957512454787, 4.998313828452093,\n                           0.1351811773426288, -2.9300746512408358, 7.056225579075668, 0.018018157564243964,\n                           3.5819215770868396, 8.756979091987713, 0.006679800811496328, -0.3165834197326595,\n                           1.0261095127397382, 0.29202844575562903, -4.761219266809471, -4.359609944815072,\n                           -0.010327734317623793, -4.515554870499954, 1.1886259595291113, 0.04447432332065304,\n                           3.978764063432984, -8.927077990046644, -0.5243332404421528, -3.986431555371763,\n                           -11.362934965761784, -0.62259899896596, -0.21075875670702116, -9.076366353957813,\n                           -0.3750448765309846, 3.9277414580456225, -4.841490106806819, -0.2748893918817199,\n                           5.840144297008944, -2.0125700969964493, 0.02746678819153292, 4.078919548082249,\n                           -0.6840926307995965, 0.13896062959354438, -0.3317012287363222, 11.03976825154077,\n                           -0.1747339072324543, 3.052798261958648, 10.06466957080453, -0.1936311684870331,\n                           -1.6979732174423317, 1.9218396962067485, 0.02557706206607513, -6.426067983337818,\n                           -0.9127494919799938, 0.12573254671533984, -4.691299400167532],\n              'mass_numbers': [12, 12, 12, 12, 12, 12, 12, 12, 12, 14, 14, 14, 14, 14, 14, 14, 14, 16, 16, 1, 1, 1, 1,\n                               1, 1, 1, 1, 1, 1],\n              'masses': [12.0, 12.0, 12.0, 12.0, 12.0, 12.0, 12.0, 12.0, 12.0, 14.00307400443, 14.00307400443,\n                         14.00307400443, 14.00307400443, 14.00307400443, 14.00307400443, 14.00307400443, 14.00307400443,\n                         15.99491461957, 15.99491461957, 1.00782503223, 1.00782503223, 1.00782503223, 1.00782503223,\n                         1.00782503223, 1.00782503223, 1.00782503223, 1.00782503223, 1.00782503223, 1.00782503223],\n              'molecular_charge': 0.0,\n              'molecular_multiplicity': 1,\n              'name': 'C9H10N8O2',\n              'provenance': {'creator': 'QCElemental',\n                             'routine': 'qcelemental.molparse.from_string',\n                             'version': 'v0.19.0'},\n              'real': [True, True, True, True, True, True, True, True, True, True, True, True, True, True, True, True,\n                       True, True, True, True, True, True, True, True, True, True, True, True, True],\n              'symbols': ['C', 'C', 'C', 'C', 'C', 'C', 'C', 'C', 'C', 'N', 'N', 'N', 'N', 'N', 'N', 'N', 'N', 'O', 'O',\n                          'H', 'H', 'H', 'H', 'H', 'H', 'H', 'H', 'H', 'H'],\n              'validated': True},\n 'protocols': {},\n 'provenance': {'creator': 'QCElemental', 'routine': 'qcelemental.models.results', 'version': 'v0.17.0'},\n 'schema_name': 'qcschema_input',\n 'schema_version': 1}\n--------------------------------------------------------------------------\n\nScratch directory: /home/ubuntu/pk/scratch/tmps1tf_9sg_psi_scratch/\n\n*** tstart() called on bignimbus\n*** at Sat Apr 24 12:36:12 2021\n\n   => Loading Basis Set <=\n\n    Name: DEF2-SVPD\n    Role: ORBITAL\n    Keyword: BASIS\n    atoms 1-9   entry C          line   101 file /home/ubuntu/pk/Applications/miniconda3/envs/psi4-1.4a2.dev923/share/psi4/basis/def2-svpd.gbs \n    atoms 10-17 entry N          line   125 file /home/ubuntu/pk/Applications/miniconda3/envs/psi4-1.4a2.dev923/share/psi4/basis/def2-svpd.gbs \n    atoms 18-19 entry O          line   149 file /home/ubuntu/pk/Applications/miniconda3/envs/psi4-1.4a2.dev923/share/psi4/basis/def2-svpd.gbs \n    atoms 20-29 entry H          line    14 file /home/ubuntu/pk/Applications/miniconda3/envs/psi4-1.4a2.dev923/share/psi4/basis/def2-svpd.gbs \n\n   => M06-2X-D3: Empirical Dispersion <=\n\n    Grimme's -D3 (zero-damping) Dispersion Correction\n    Grimme S.; Antony J.; Ehrlich S.; Krieg H. (2010), J. Chem. Phys., 132: 154104\n    Parametrisation from:    L. Goerigk, S. Grimme, Phys. Chem. Chem. Phys. 13, 6670-6688, 2011\n\n        s6 =       1.000000\n        s8 =       0.000000\n       sr6 =       1.619000\n    alpha6 =      14.000000\n       sr8 =       1.000000\n\n\n         ---------------------------------------------------------\n                                   SCF\n               by Justin Turney, Rob Parrish, Andy Simmonett\n                          and Daniel G. A. Smith\n                              RKS Reference\n                       16 Threads,  61035 MiB Core\n         ---------------------------------------------------------\n\n  ==> Geometry <==\n\n    Molecular point group: c1\n    Full point group: C1\n\n    Geometry (in Bohr), charge = 0, multiplicity = 1:\n\n       Center              X                  Y                   Z               Mass       \n    ------------   -----------------  -----------------  -----------------  -----------------\n         C           -5.385731230939    -0.065129791956    -2.408510240614    12.000000000000\n         C           -9.333369107020    -0.392052411660    -0.082257380176    12.000000000000\n         C           -8.074811507465    -0.255992130627     2.149509173990    12.000000000000\n         C           -5.368723695810    -0.063240065830     2.039905058713    12.000000000000\n         C            2.486867807719     0.110614737712     2.011559166831    12.000000000000\n         C            2.496316438346     0.182424330479    -2.676851350429    12.000000000000\n         C            6.185061835240     0.091717476457    -0.679410835821    12.000000000000\n         C            5.168389179743     0.108725011586     1.765894770522    12.000000000000\n         C            9.155711304459    -0.055681161329     2.274231098270    12.000000000000\n         N           -8.042686163332    -0.284338022509    -2.304575303714    14.003074004430\n         N           -4.125283905258     0.048253775572    -0.176743686449    14.003074004430\n         N           -3.987333898100     0.008569526937     4.156398319226    14.003074004430\n         N            1.292560896429     0.159747616974    -0.369495751245    14.003074004430\n         N            4.998313828452     0.135181177343    -2.930074651241    14.003074004430\n         N            7.056225579076     0.018018157564     3.581921577087    14.003074004430\n         N            8.756979091988     0.006679800811    -0.316583419733    14.003074004430\n         N            1.026109512740     0.292028445756    -4.761219266809    14.003074004430\n         O           -4.359609944815    -0.010327734318    -4.515554870500    15.994914619570\n         O            1.188625959529     0.044474323321     3.978764063433    15.994914619570\n         H           -8.927077990047    -0.524333240442    -3.986431555372     1.007825032230\n         H          -11.362934965762    -0.622598998966    -0.210758756707     1.007825032230\n         H           -9.076366353958    -0.375044876531     3.927741458046     1.007825032230\n         H           -4.841490106807    -0.274889391882     5.840144297009     1.007825032230\n         H           -2.012570096996     0.027466788192     4.078919548082     1.007825032230\n         H           -0.684092630800     0.138960629594    -0.331701228736     1.007825032230\n         H           11.039768251541    -0.174733907232     3.052798261959     1.007825032230\n         H           10.064669570805    -0.193631168487    -1.697973217442     1.007825032230\n         H            1.921839696207     0.025577062066    -6.426067983338     1.007825032230\n         H           -0.912749491980     0.125732546715    -4.691299400168     1.007825032230\n\n  Running in c1 symmetry.\n\n  Rotational constants: A =      0.02936  B =      0.00676  C =      0.00550 [cm^-1]\n  Rotational constants: A =    880.10499  B =    202.52246  C =    164.76767 [MHz]\n  Nuclear repulsion = 1391.394659364626023\n\n  Charge       = 0\n  Multiplicity = 1\n  Electrons    = 136\n  Nalpha       = 68\n  Nbeta        = 68\n\n  ==> Algorithm <==\n\n  SCF Algorithm Type is DF.\n  DIIS enabled.\n  MOM disabled.\n  Fractional occupation disabled.\n  Guess Type is SAD.\n  Energy threshold   = 1.00e-06\n  Density threshold  = 1.00e-06\n  Integral threshold = 0.00e+00\n\n  ==> Primary Basis <==\n\n  Basis Set: DEF2-SVPD\n    Blend: DEF2-SVPD\n    Number of shells: 194\n    Number of basis function: 466\n    Number of Cartesian functions: 504\n    Spherical Harmonics?: true\n    Max angular momentum: 2\n\n  ==> DFT Potential <==\n\n   => Composite Functional: M06-2X-D3ZERO <= \n\n    Hybrid M06-2X Meta-GGA XC Functional\n\n    Y. Zhao and D. G. Truhlar,  Theor. Chem. Acc., 120, 215, 2008\n\n\n    Deriv               =              1\n    GGA                 =           TRUE\n    Meta                =           TRUE\n\n    Exchange Hybrid     =           TRUE\n    MP2 Hybrid          =          FALSE\n\n   => Exchange Functionals <=\n\n    1.0000   XC_HYB_MGGA_X_M06_2X\n\n   => Exact (HF) Exchange <=\n\n    0.5400               HF \n\n   => Correlation Functionals <=\n\n    1.0000   XC_MGGA_C_M06_2X\n\n   => LibXC Density Thresholds  <==\n\n    XC_MGGA_C_M06_2X:  1.00E-23 \n    XC_HYB_MGGA_X_M06_2X:  1.00E-20 \n\n   => Molecular Quadrature <=\n\n    Radial Scheme          =       TREUTLER\n    Pruning Scheme         =           NONE\n    Nuclear Scheme         =       TREUTLER\n\n    BS radius alpha        =              1\n    Pruning alpha          =              1\n    Radial Points          =             75\n    Spherical Points       =            302\n    Total Points           =         602805\n    Total Blocks           =           4367\n    Max Points             =            256\n    Max Functions          =            386\n    Weights Tolerance      =       1.00E-15\n\n   => Loading Basis Set <=\n\n    Name: (DEF2-SVPD AUX)\n    Role: JKFIT\n    Keyword: DF_BASIS_SCF\n    atoms 1-9   entry C          line   198 file /home/ubuntu/pk/Applications/miniconda3/envs/psi4-1.4a2.dev923/share/psi4/basis/def2-universal-jkfit.gbs \n    atoms 10-17 entry N          line   258 file /home/ubuntu/pk/Applications/miniconda3/envs/psi4-1.4a2.dev923/share/psi4/basis/def2-universal-jkfit.gbs \n    atoms 18-19 entry O          line   318 file /home/ubuntu/pk/Applications/miniconda3/envs/psi4-1.4a2.dev923/share/psi4/basis/def2-universal-jkfit.gbs \n    atoms 20-29 entry H          line    18 file /home/ubuntu/pk/Applications/miniconda3/envs/psi4-1.4a2.dev923/share/psi4/basis/def2-universal-jkfit.gbs \n\n  ==> Integral Setup <==\n\n  DFHelper Memory: AOs need 2.313 GiB; user supplied 32.381 GiB. Using in-core AOs.\n\n  ==> MemDFJK: Density-Fitted J/K Matrices <==\n\n    J tasked:                   Yes\n    K tasked:                   Yes\n    wK tasked:                   No\n    OpenMP threads:              16\n    Memory [MiB]:             33157\n    Algorithm:                 Core\n    Schwarz Cutoff:           1E-12\n    Mask sparsity (%):      15.4313\n    Fitting Condition:        1E-10\n\n   => Auxiliary Basis Set <=\n\n  Basis Set: (DEF2-SVPD AUX)\n    Blend: DEF2-UNIVERSAL-JKFIT\n    Number of shells: 535\n    Number of basis function: 1625\n    Number of Cartesian functions: 1931\n    Spherical Harmonics?: true\n    Max angular momentum: 4\n\n  Cached 100.0% of DFT collocation blocks in 12.323 [GiB].\n\n  Minimum eigenvalue in the overlap matrix is 1.8645031263E-05.\n  Reciprocal condition number of the overlap matrix is 1.5497320916E-06.\n    Using symmetric orthogonalization.\n\n  ==> Pre-Iterations <==\n\n  SCF Guess: Superposition of Atomic Densities via on-the-fly atomic UHF (no occupation information).\n\n   -------------------------\n    Irrep   Nso     Nmo    \n   -------------------------\n     A        466     466 \n   -------------------------\n    Total     466     466\n   -------------------------\n\n  ==> Iterations <==\n\n                           Total Energy        Delta E     RMS |[F,P]|\n\n   @DF-RKS iter SAD:  -936.52284626319931   -9.36523e+02   0.00000e+00 \n   @DF-RKS iter   1:  -935.91909157156465    6.03755e-01   2.56393e-03 DIIS\n   @DF-RKS iter   2:  -935.89812489054043    2.09667e-02   2.73017e-03 DIIS\n   @DF-RKS iter   3:  -936.52148289084118   -6.23358e-01   5.52083e-04 DIIS\n   @DF-RKS iter   4:  -936.54832714663996   -2.68443e-02   1.30382e-04 DIIS\n   @DF-RKS iter   5:  -936.54976994926471   -1.44280e-03   4.34948e-05 DIIS\n   @DF-RKS iter   6:  -936.54995395180833   -1.84003e-04   1.31200e-05 DIIS\n   @DF-RKS iter   7:  -936.54997195659746   -1.80048e-05   5.36000e-06 DIIS\n   @DF-RKS iter   8:  -936.54997518864229   -3.23204e-06   1.87529e-06 DIIS\n   @DF-RKS iter   9:  -936.54997576824792   -5.79606e-07   9.17610e-07 DIIS\n  Energy and wave function converged.\n\n\n  ==> Post-Iterations <==\n\n    Orbital Energies [Eh]\n    ---------------------\n\n    Doubly Occupied:                                                      \n\n       1A    -19.619281     2A    -19.602607     3A    -14.840615  \n       4A    -14.814076     5A    -14.792636     6A    -14.790970  \n       7A    -14.769680     8A    -14.765723     9A    -14.746982  \n      10A    -14.745093    11A    -10.705340    12A    -10.676484  \n      13A    -10.673504    14A    -10.661318    15A    -10.653048  \n      16A    -10.622494    17A    -10.613416    18A    -10.587895  \n      19A    -10.559727    20A     -1.175009    21A     -1.143145  \n      22A     -1.117867    23A     -1.093394    24A     -1.087370  \n      25A     -1.062187    26A     -0.987981    27A     -0.984495  \n      28A     -0.979059    29A     -0.956211    30A     -0.894832  \n      31A     -0.834341    32A     -0.771487    33A     -0.754168  \n      34A     -0.744383    35A     -0.721532    36A     -0.693461  \n      37A     -0.670152    38A     -0.664466    39A     -0.656022  \n      40A     -0.622256    41A     -0.606520    42A     -0.600236  \n      43A     -0.583643    44A     -0.567943    45A     -0.559180  \n      46A     -0.547249    47A     -0.545041    48A     -0.539392  \n      49A     -0.526895    50A     -0.512796    51A     -0.502246  \n      52A     -0.492386    53A     -0.488263    54A     -0.486925  \n      55A     -0.472890    56A     -0.455117    57A     -0.443130  \n      58A     -0.387109    59A     -0.371617    60A     -0.365487  \n      61A     -0.363626    62A     -0.339934    63A     -0.337033  \n      64A     -0.332967    65A     -0.325491    66A     -0.323734  \n      67A     -0.315293    68A     -0.246224  \n\n    Virtual:                                                              \n\n      69A     -0.027272    70A      0.011737    71A      0.021797  \n      72A      0.028962    73A      0.036212    74A      0.040747  \n      75A      0.043774    76A      0.047109    77A      0.065220  \n      78A      0.070203    79A      0.073043    80A      0.086495  \n      81A      0.088497    82A      0.094948    83A      0.105824  \n      84A      0.108046    85A      0.118910    86A      0.125045  \n      87A      0.131855    88A      0.136604    89A      0.147215  \n      90A      0.149047    91A      0.154123    92A      0.157819  \n      93A      0.160742    94A      0.170304    95A      0.181035  \n      96A      0.186095    97A      0.191125    98A      0.198148  \n      99A      0.202751   100A      0.209538   101A      0.211403  \n     102A      0.218327   103A      0.220568   104A      0.227941  \n     105A      0.228771   106A      0.233715   107A      0.240895  \n     108A      0.246171   109A      0.249184   110A      0.251366  \n     111A      0.258263   112A      0.260271   113A      0.263072  \n     114A      0.265286   115A      0.273810   116A      0.275960  \n     117A      0.278916   118A      0.282523   119A      0.285227  \n     120A      0.292171   121A      0.299593   122A      0.307238  \n     123A      0.307718   124A      0.313731   125A      0.316001  \n     126A      0.321468   127A      0.322897   128A      0.326532  \n     129A      0.329204   130A      0.330997   131A      0.342312  \n     132A      0.344493   133A      0.346472   134A      0.349166  \n     135A      0.354682   136A      0.357045   137A      0.358650  \n     138A      0.361837   139A      0.368219   140A      0.369369  \n     141A      0.375238   142A      0.379116   143A      0.382360  \n     144A      0.384710   145A      0.387235   146A      0.390115  \n     147A      0.398291   148A      0.399639   149A      0.402067  \n     150A      0.405796   151A      0.417049   152A      0.419120  \n     153A      0.421552   154A      0.426281   155A      0.428245  \n     156A      0.435134   157A      0.439871   158A      0.443938  \n     159A      0.450602   160A      0.454215   161A      0.458992  \n     162A      0.461725   163A      0.469068   164A      0.473375  \n     165A      0.479729   166A      0.481634   167A      0.482834  \n     168A      0.487524   169A      0.491370   170A      0.494704  \n     171A      0.503285   172A      0.506356   173A      0.514285  \n     174A      0.515309   175A      0.517506   176A      0.534975  \n     177A      0.546090   178A      0.548788   179A      0.556807  \n     180A      0.561897   181A      0.573108   182A      0.578058  \n     183A      0.578979   184A      0.581212   185A      0.592017  \n     186A      0.595006   187A      0.603625   188A      0.606440  \n     189A      0.609897   190A      0.611092   191A      0.615042  \n     192A      0.621449   193A      0.629611   194A      0.630695  \n     195A      0.642517   196A      0.644099   197A      0.652866  \n     198A      0.654913   199A      0.659748   200A      0.662120  \n     201A      0.667850   202A      0.672815   203A      0.675965  \n     204A      0.679660   205A      0.685040   206A      0.691401  \n     207A      0.700718   208A      0.701819   209A      0.703426  \n     210A      0.708205   211A      0.715583   212A      0.724200  \n     213A      0.730924   214A      0.733360   215A      0.739161  \n     216A      0.743261   217A      0.744261   218A      0.752445  \n     219A      0.753874   220A      0.755268   221A      0.759368  \n     222A      0.763250   223A      0.771245   224A      0.773488  \n     225A      0.775621   226A      0.781442   227A      0.789224  \n     228A      0.796866   229A      0.800622   230A      0.801351  \n     231A      0.809708   232A      0.812464   233A      0.820123  \n     234A      0.821831   235A      0.823542   236A      0.832888  \n     237A      0.837134   238A      0.842500   239A      0.848528  \n     240A      0.854129   241A      0.862218   242A      0.868961  \n     243A      0.877234   244A      0.884514   245A      0.887258  \n     246A      0.894017   247A      0.897474   248A      0.905123  \n     249A      0.918049   250A      0.931638   251A      0.935291  \n     252A      0.952314   253A      0.954891   254A      0.960076  \n     255A      0.966007   256A      0.973170   257A      0.976340  \n     258A      0.985407   259A      0.991587   260A      1.007310  \n     261A      1.018083   262A      1.027472   263A      1.034040  \n     264A      1.064378   265A      1.070364   266A      1.077544  \n     267A      1.082586   268A      1.087307   269A      1.106245  \n     270A      1.116998   271A      1.133888   272A      1.134753  \n     273A      1.144213   274A      1.155579   275A      1.163055  \n     276A      1.172388   277A      1.182334   278A      1.189327  \n     279A      1.199824   280A      1.216866   281A      1.225458  \n     282A      1.226946   283A      1.239610   284A      1.249729  \n     285A      1.259277   286A      1.260523   287A      1.262482  \n     288A      1.275904   289A      1.280148   290A      1.293940  \n     291A      1.295571   292A      1.301017   293A      1.306232  \n     294A      1.314478   295A      1.327803   296A      1.340125  \n     297A      1.343922   298A      1.369057   299A      1.391020  \n     300A      1.395307   301A      1.407116   302A      1.427367  \n     303A      1.447271   304A      1.459273   305A      1.486848  \n     306A      1.502888   307A      1.513958   308A      1.524545  \n     309A      1.538979   310A      1.557340   311A      1.571993  \n     312A      1.588257   313A      1.592128   314A      1.604618  \n     315A      1.614759   316A      1.628042   317A      1.645163  \n     318A      1.654999   319A      1.671857   320A      1.679065  \n     321A      1.683554   322A      1.695844   323A      1.712387  \n     324A      1.720461   325A      1.738237   326A      1.746121  \n     327A      1.754438   328A      1.757936   329A      1.766467  \n     330A      1.776198   331A      1.777117   332A      1.794999  \n     333A      1.802955   334A      1.814233   335A      1.816233  \n     336A      1.819985   337A      1.825008   338A      1.831689  \n     339A      1.841487   340A      1.847942   341A      1.852489  \n     342A      1.860691   343A      1.865963   344A      1.871965  \n     345A      1.877469   346A      1.896989   347A      1.898008  \n     348A      1.902451   349A      1.916128   350A      1.932337  \n     351A      1.941116   352A      1.949162   353A      1.956942  \n     354A      1.962865   355A      1.966805   356A      1.969474  \n     357A      1.989002   358A      1.991918   359A      2.003382  \n     360A      2.017407   361A      2.019846   362A      2.044433  \n     363A      2.063321   364A      2.068872   365A      2.072938  \n     366A      2.084361   367A      2.090671   368A      2.101051  \n     369A      2.110707   370A      2.126547   371A      2.131579  \n     372A      2.137445   373A      2.140805   374A      2.147652  \n     375A      2.156396   376A      2.173713   377A      2.181433  \n     378A      2.192982   379A      2.202474   380A      2.216700  \n     381A      2.226237   382A      2.230027   383A      2.251558  \n     384A      2.261781   385A      2.271806   386A      2.297290  \n     387A      2.304298   388A      2.316699   389A      2.333590  \n     390A      2.356629   391A      2.364995   392A      2.376803  \n     393A      2.405708   394A      2.408154   395A      2.421470  \n     396A      2.423576   397A      2.449889   398A      2.470656  \n     399A      2.478640   400A      2.497483   401A      2.507120  \n     402A      2.528032   403A      2.534347   404A      2.566255  \n     405A      2.573614   406A      2.586986   407A      2.603455  \n     408A      2.613722   409A      2.623464   410A      2.640316  \n     411A      2.643066   412A      2.650332   413A      2.655890  \n     414A      2.675953   415A      2.691507   416A      2.711744  \n     417A      2.717973   418A      2.726460   419A      2.776168  \n     420A      2.794336   421A      2.818738   422A      2.821312  \n     423A      2.857301   424A      2.858860   425A      2.869125  \n     426A      2.871971   427A      2.884554   428A      2.900636  \n     429A      2.934103   430A      2.945896   431A      2.963620  \n     432A      2.997018   433A      3.017761   434A      3.032110  \n     435A      3.050712   436A      3.070930   437A      3.095356  \n     438A      3.109931   439A      3.124217   440A      3.144513  \n     441A      3.158863   442A      3.193565   443A      3.222118  \n     444A      3.229176   445A      3.242902   446A      3.249860  \n     447A      3.263658   448A      3.276236   449A      3.286802  \n     450A      3.298116   451A      3.335630   452A      3.365704  \n     453A      3.393506   454A      3.444029   455A      3.492195  \n     456A      3.522388   457A      3.538987   458A      3.585575  \n     459A      3.629689   460A      3.694346   461A      3.708026  \n     462A      3.723833   463A      3.747617   464A      3.770784  \n     465A      3.887930   466A      3.941290  \n\n    Final Occupation by Irrep:\n              A \n    DOCC [    68 ]\n\n  @DF-RKS Final Energy:  -936.54997576824792\n\n   => Energetics <=\n\n    Nuclear Repulsion Energy =           1391.3946593646260226\n    One-Electron Energy =               -4037.3648576684504405\n    Two-Electron Energy =                1769.5298157080603687\n    DFT Exchange-Correlation Energy =     -60.1080795024838608\n    Empirical Dispersion Energy =          -0.0015136700000000\n    VV10 Nonlocal Energy =                  0.0000000000000000\n    Total Energy =                       -936.5499757682479185\n\nComputation Completed\n\n\nProperties will be evaluated at   0.000000,   0.000000,   0.000000 [a0]\n\nProperties computed using the SCF density matrix\n\n  Nuclear Dipole Moment: [e a0]\n     X:    -7.3564      Y:    -0.9170      Z:    -0.2171\n\n  Electronic Dipole Moment: [e a0]\n     X:     5.0577      Y:     0.4349      Z:    -0.3988\n\n  Dipole Moment: [e a0]\n     X:    -2.2987      Y:    -0.4821      Z:    -0.6160     Total:     2.4282\n\n  Dipole Moment: [D]\n     X:    -5.8428      Y:    -1.2254      Z:    -1.5656     Total:     6.1718\n\n\n*** tstop() called on bignimbus at Sat Apr 24 12:36:55 2021\nModule time:\n\tuser time   =     566.17 seconds =       9.44 minutes\n\tsystem time =      25.84 seconds =       0.43 minutes\n\ttotal time  =         43 seconds =       0.72 minutes\nTotal time:\n\tuser time   =     566.17 seconds =       9.44 minutes\n\tsystem time =      25.84 seconds =       0.43 minutes\n\ttotal time  =         43 seconds =       0.72 minutes\n\n    Psi4 stopped on: Saturday, 24 April 2021 12:36PM\n    Psi4 wall time for execution: 0:00:42.90\n\n*** Psi4 exiting successfully. Buy a developer a beer!\n",
 "stderr": null,
 "success": true,
 "error": null,
 "tag": "m062x-d3 def2-svpd c3gc_a"
}