{
 "id": null,
 "schema_name": "qcschema_output",
 "schema_version": 1,
 "molecule": {
  "validated": true,
  "symbols": [
   "C",
   "C",
   "C",
   "C",
   "C",
   "N",
   "N",
   "N",
   "N",
   "N",
   "O",
   "H",
   "H",
   "H",
   "H",
   "H",
   "C",
   "C",
   "C",
   "C",
   "N",
   "N",
   "N",
   "O",
   "H",
   "H",
   "H",
   "H",
   "H"
  ],
  "geometry": [
   -2.811399463448751,
   1.6087221422380076,
   0.0,
   -2.303939968622808,
   -2.999758629094373,
   0.0,
   -6.165332634064441,
   -1.4453303895287786,
   0.0,
   -5.448476366728766,
   1.0486621207099458,
   0.0,
   -9.426070181350926,
   1.1020468837541295,
   0.0,
   -1.376405694464342,
   -0.6015261005370985,
   0.0,
   -4.709153145487523,
   -3.5278312564968113,
   0.0,
   -7.541965991116336,
   2.6074650762559752,
   0.0,
   -8.722424989358327,
   -1.4035561037994078,
   0.0,
   -0.5990441760437587,
   -4.861318386652253,
   0.0,
   -1.7596421527071895,
   3.640532995616759,
   0.0,
   0.510644578799838,
   -0.3459652085085584,
   0.0,
   -11.374954183166212,
   1.6486539449950572,
   0.0,
   -9.84039074463143,
   -2.909732076477562,
   0.0,
   -1.2545901689650794,
   -6.615955550305602,
   0.0,
   1.2657318953796497,
   -4.546049707963747,
   0.0,
   5.7738001793097045,
   -1.6318879320862265,
   0.0,
   9.399285104427557,
   1.1014761864642413,
   0.0,
   7.930160991891255,
   3.1563076835033197,
   0.0,
   5.232531594373196,
   2.717335642916219,
   0.0,
   8.366770874821535,
   -1.237776099991369,
   0.0,
   4.270156439639664,
   0.42708395489372997,
   0.0,
   3.6640116670900613,
   4.663711978163021,
   0.0,
   5.000592278912879,
   -3.783157822485794,
   0.0,
   9.43399937335222,
   -2.784679450125391,
   0.0,
   11.426339517148532,
   1.1945281906079102,
   0.0,
   8.702735834036055,
   5.027762047054095,
   0.0,
   4.318966175734114,
   6.418774330194599,
   0.0,
   1.7821468023141376,
   4.376148574199853,
   0.0
  ],
  "name": "C9H10N8O2",
  "molecular_charge": 0.0,
  "molecular_multiplicity": 1,
  "masses": [
   12.0,
   12.0,
   12.0,
   12.0,
   12.0,
   14.00307400443,
   14.00307400443,
   14.00307400443,
   14.00307400443,
   14.00307400443,
   15.99491461957,
   1.00782503223,
   1.00782503223,
   1.00782503223,
   1.00782503223,
   1.00782503223,
   12.0,
   12.0,
   12.0,
   12.0,
   14.00307400443,
   14.00307400443,
   14.00307400443,
   15.99491461957,
   1.00782503223,
   1.00782503223,
   1.00782503223,
   1.00782503223,
   1.00782503223
  ],
  "real": [
   true,
   true,
   true,
   true,
   true,
   true,
   true,
   true,
   true,
   true,
   true,
   true,
   true,
   true,
   true,
   true,
   true,
   true,
   true,
   true,
   true,
   true,
   true,
   true,
   true,
   true,
   true,
   true,
   true
  ],
  "atom_labels": [
   "",
   "",
   "",
   "",
   "",
   "",
   "",
   "",
   "",
   "",
   "",
   "",
   "",
   "",
   "",
   "",
   "",
   "",
   "",
   "",
   "",
   "",
   "",
   "",
   "",
   "",
   "",
   "",
   ""
  ],
  "atomic_numbers": [
   6,
   6,
   6,
   6,
   6,
   7,
   7,
   7,
   7,
   7,
   8,
   1,
   1,
   1,
   1,
   1,
   6,
   6,
   6,
   6,
   7,
   7,
   7,
   8,
   1,
   1,
   1,
   1,
   1
  ],
  "mass_numbers": [
   12,
   12,
   12,
   12,
   12,
   14,
   14,
   14,
   14,
   14,
   16,
   1,
   1,
   1,
   1,
   1,
   12,
   12,
   12,
   12,
   14,
   14,
   14,
   16,
   1,
   1,
   1,
   1,
   1
  ],
  "fragments": [
   [
    0,
    1,
    2,
    3,
    4,
    5,
    6,
    7,
    8,
    9,
    10,
    11,
    12,
    13,
    14,
    15,
    16,
    17,
    18,
    19,
    20,
    21,
    22,
    23,
    24,
    25,
    26,
    27,
    28
   ]
  ],
  "fragment_charges": [
   0.0
  ],
  "fragment_multiplicities": [
   1
  ],
  "fix_com": false,
  "fix_orientation": false,
  "provenance": {
   "creator": "QCElemental",
   "version": "v0.19.0",
   "routine": "qcelemental.molparse.from_string"
  }
 },
 "driver": "energy",
 "model": {
  "method": "m062x-d3",
  "basis": "def2-svpd"
 },
 "keywords": {},
 "protocols": {},
 "extras": {
  "qcvars": {
   "2-BODY DISPERSION CORRECTION ENERGY": -0.00148061,
   "CURRENT DIPOLE X": 5.799347177992666,
   "CURRENT DIPOLE Y": -0.7876719800377561,
   "CURRENT DIPOLE Z": 0.0,
   "CURRENT ENERGY": -936.5469901523816,
   "CURRENT REFERENCE ENERGY": -936.5469901523816,
   "DFT FUNCTIONAL TOTAL ENERGY": -936.5455095423815,
   "DFT TOTAL ENERGY": -936.5469901523816,
   "DFT VV10 ENERGY": 0.0,
   "DFT XC ENERGY": -60.234703926209505,
   "DISPERSION CORRECTION ENERGY": -0.00148061,
   "M06-2X-D3 DISPERSION CORRECTION ENERGY": -0.00148061,
   "NUCLEAR REPULSION ENERGY": 1391.9769095425527,
   "ONE-ELECTRON ENERGY": -4038.20719312832,
   "PCM POLARIZATION ENERGY": 0.0,
   "PE ENERGY": 0.0,
   "SCF DIPOLE X": 5.799347177992666,
   "SCF DIPOLE Y": -0.7876719800377561,
   "SCF DIPOLE Z": 0.0,
   "SCF ITERATION ENERGY": -936.5469901523816,
   "SCF ITERATIONS": 9.0,
   "SCF TOTAL ENERGY": -936.5469901523816,
   "TWO-ELECTRON ENERGY": 1769.9194779695952,
   "XC GRID RADIAL POINTS": 75.0,
   "XC GRID SPHERICAL POINTS": 302.0,
   "XC GRID TOTAL POINTS": 602904.0,
   "CURRENT DIPOLE": [
    2.2816387423965523,
    -0.3098940019963434,
    0.0
   ],
   "SCF DIPOLE": [
    2.2816387423965523,
    -0.3098940019963434,
    0.0
   ]
  }
 },
 "provenance": {
  "creator": "Psi4",
  "version": "1.4a2.dev923",
  "routine": "psi4.schema_runner.run_qcschema",
  "nthreads": 16,
  "username": "ubuntu",
  "wall_time": 55.61495327949524,
  "hostname": "bignimbus",
  "qcengine_version": "v0.17.0",
  "cpu": "AMD EPYC Processor (with IBPB)",
  "memory": 64.0
 },
 "properties": {
  "calcinfo_nbasis": 466,
  "calcinfo_nmo": 466,
  "calcinfo_nalpha": 68,
  "calcinfo_nbeta": 68,
  "calcinfo_natom": 29,
  "nuclear_repulsion_energy": 1391.9769095425527,
  "return_energy": -936.5469901523816,
  "scf_one_electron_energy": -4038.20719312832,
  "scf_two_electron_energy": 1769.9194779695952,
  "scf_xc_energy": -60.234703926209505,
  "scf_dispersion_correction_energy": -0.00148061,
  "scf_dipole_moment": [
   2.2816387423965523,
   -0.3098940019963434,
   0.0
  ],
  "scf_total_energy": -936.5469901523816,
  "scf_iterations": 9
 },
 "wavefunction": null,
 "return_result": -936.5469901523816,
 "stdout": "\n    -----------------------------------------------------------------------\n          Psi4: An Open-Source Ab Initio Electronic Structure Package\n                               Psi4 1.4a2.dev923 \n\n                         Git: Rev {master} 5de566e \n\n\n    D. G. A. Smith, L. A. Burns, A. C. Simmonett, R. M. Parrish,\n    M. C. Schieber, R. Galvelis, P. Kraus, H. Kruse, R. Di Remigio,\n    A. Alenaizan, A. M. James, S. Lehtola, J. P. Misiewicz, M. Scheurer,\n    R. A. Shaw, J. B. Schriber, Y. Xie, Z. L. Glick, D. A. Sirianni,\n    J. S. O'Brien, J. M. Waldrop, A. Kumar, E. G. Hohenstein,\n    B. P. Pritchard, B. R. Brooks, H. F. Schaefer III, A. Yu. Sokolov,\n    K. Patkowski, A. E. DePrince III, U. Bozkaya, R. A. King,\n    F. A. Evangelista, J. M. Turney, T. D. Crawford, C. D. Sherrill,\n    J. Chem. Phys. 152(18) 184108 (2020). https://doi.org/10.1063/5.0006002\n\n                            Additional Code Authors\n    E. T. Seidl, C. L. Janssen, E. F. Valeev, M. L. Leininger,\n    J. F. Gonthier, R. M. Richard, H. R. McAlexander, M. Saitow, X. Wang,\n    P. Verma, and M. H. Lechner\n\n             Previous Authors, Complete List of Code Contributors,\n                       and Citations for Specific Modules\n    https://github.com/psi4/psi4/blob/master/codemeta.json\n    https://github.com/psi4/psi4/graphs/contributors\n    http://psicode.org/psi4manual/master/introduction.html#citing-psifour\n\n    -----------------------------------------------------------------------\n\n\n    Psi4 started on: Saturday, 24 April 2021 11:13AM\n\n    Process ID: 3767598\n    Host:       bignimbus\n    PSIDATADIR: /home/ubuntu/pk/Applications/miniconda3/envs/psi4-1.4a2.dev923/share/psi4\n    Memory:     59.6 GiB\n    Threads:    16\n    \n  ==> Input QCSchema <==\n\n--------------------------------------------------------------------------\n{'driver': 'energy',\n 'extras': {},\n 'id': None,\n 'keywords': {},\n 'model': {'basis': 'def2-svpd', 'method': 'm062x-d3'},\n 'molecule': {'atom_labels': ['', '', '', '', '', '', '', '', '', '', '', '', '', '', '', '', '', '', '', '', '', '',\n                              '', '', '', '', '', '', ''],\n              'atomic_numbers': [6, 6, 6, 6, 6, 7, 7, 7, 7, 7, 8, 1, 1, 1, 1, 1, 6, 6, 6, 6, 7, 7, 7, 8, 1, 1, 1, 1, 1],\n              'fix_com': False,\n              'fix_orientation': False,\n              'fragment_charges': [0.0],\n              'fragment_multiplicities': [1],\n              'fragments': [[0, 1, 2, 3, 4, 5, 6, 7, 8, 9, 10, 11, 12, 13, 14, 15, 16, 17, 18, 19, 20, 21, 22, 23, 24,\n                             25, 26, 27, 28]],\n              'geometry': [-2.8113994634487516, 1.6087221422380074, 0.0, -2.3039399686228084, -2.9997586290943734, 0.0,\n                           -6.165332634064442, -1.4453303895287788, 0.0, -5.448476366728767, 1.0486621207099456, 0.0,\n                           -9.426070181350926, 1.1020468837541293, 0.0, -1.3764056944643424, -0.6015261005370988, 0.0,\n                           -4.709153145487524, -3.5278312564968117, 0.0, -7.541965991116337, 2.607465076255975, 0.0,\n                           -8.722424989358327, -1.403556103799408, 0.0, -0.5990441760437591, -4.861318386652253, 0.0,\n                           -1.75964215270719, 3.6405329956167587, 0.0, 0.5106445787998376, -0.34596520850855866, 0.0,\n                           -11.374954183166212, 1.648653944995057, 0.0, -9.84039074463143, -2.9097320764775625, 0.0,\n                           -1.2545901689650798, -6.615955550305602, 0.0, 1.2657318953796493, -4.546049707963747, 0.0,\n                           5.773800179309704, -1.6318879320862267, 0.0, 9.399285104427557, 1.101476186464241, 0.0,\n                           7.930160991891254, 3.1563076835033193, 0.0, 5.232531594373195, 2.7173356429162188, 0.0,\n                           8.366770874821535, -1.2377760999913692, 0.0, 4.270156439639663, 0.4270839548937297, 0.0,\n                           3.664011667090061, 4.663711978163021, 0.0, 5.000592278912878, -3.7831578224857942, 0.0,\n                           9.43399937335222, -2.7846794501253913, 0.0, 11.426339517148532, 1.19452819060791, 0.0,\n                           8.702735834036055, 5.027762047054095, 0.0, 4.318966175734113, 6.418774330194599, 0.0,\n                           1.7821468023141371, 4.376148574199853, 0.0],\n              'mass_numbers': [12, 12, 12, 12, 12, 14, 14, 14, 14, 14, 16, 1, 1, 1, 1, 1, 12, 12, 12, 12, 14, 14, 14,\n                               16, 1, 1, 1, 1, 1],\n              'masses': [12.0, 12.0, 12.0, 12.0, 12.0, 14.00307400443, 14.00307400443, 14.00307400443, 14.00307400443,\n                         14.00307400443, 15.99491461957, 1.00782503223, 1.00782503223, 1.00782503223, 1.00782503223,\n                         1.00782503223, 12.0, 12.0, 12.0, 12.0, 14.00307400443, 14.00307400443, 14.00307400443,\n                         15.99491461957, 1.00782503223, 1.00782503223, 1.00782503223, 1.00782503223, 1.00782503223],\n              'molecular_charge': 0.0,\n              'molecular_multiplicity': 1,\n              'name': 'C9H10N8O2',\n              'provenance': {'creator': 'QCElemental',\n                             'routine': 'qcelemental.molparse.from_string',\n                             'version': 'v0.19.0'},\n              'real': [True, True, True, True, True, True, True, True, True, True, True, True, True, True, True, True,\n                       True, True, True, True, True, True, True, True, True, True, True, True, True],\n              'symbols': ['C', 'C', 'C', 'C', 'C', 'N', 'N', 'N', 'N', 'N', 'O', 'H', 'H', 'H', 'H', 'H', 'C', 'C', 'C',\n                          'C', 'N', 'N', 'N', 'O', 'H', 'H', 'H', 'H', 'H'],\n              'validated': True},\n 'protocols': {},\n 'provenance': {'creator': 'QCElemental', 'routine': 'qcelemental.models.results', 'version': 'v0.17.0'},\n 'schema_name': 'qcschema_input',\n 'schema_version': 1}\n--------------------------------------------------------------------------\n\nScratch directory: /tmp/tmpl8avzkss_psi_scratch/\n\n*** tstart() called on bignimbus\n*** at Sat Apr 24 11:13:47 2021\n\n   => Loading Basis Set <=\n\n    Name: DEF2-SVPD\n    Role: ORBITAL\n    Keyword: BASIS\n    atoms 1-5, 17-20   entry C          line   101 file /home/ubuntu/pk/Applications/miniconda3/envs/psi4-1.4a2.dev923/share/psi4/basis/def2-svpd.gbs \n    atoms 6-10, 21-23  entry N          line   125 file /home/ubuntu/pk/Applications/miniconda3/envs/psi4-1.4a2.dev923/share/psi4/basis/def2-svpd.gbs \n    atoms 11, 24       entry O          line   149 file /home/ubuntu/pk/Applications/miniconda3/envs/psi4-1.4a2.dev923/share/psi4/basis/def2-svpd.gbs \n    atoms 12-16, 25-29 entry H          line    14 file /home/ubuntu/pk/Applications/miniconda3/envs/psi4-1.4a2.dev923/share/psi4/basis/def2-svpd.gbs \n\n   => M06-2X-D3: Empirical Dispersion <=\n\n    Grimme's -D3 (zero-damping) Dispersion Correction\n    Grimme S.; Antony J.; Ehrlich S.; Krieg H. (2010), J. Chem. Phys., 132: 154104\n    Parametrisation from:    L. Goerigk, S. Grimme, Phys. Chem. Chem. Phys. 13, 6670-6688, 2011\n\n        s6 =       1.000000\n        s8 =       0.000000\n       sr6 =       1.619000\n    alpha6 =      14.000000\n       sr8 =       1.000000\n\n\n         ---------------------------------------------------------\n                                   SCF\n               by Justin Turney, Rob Parrish, Andy Simmonett\n                          and Daniel G. A. Smith\n                              RKS Reference\n                       16 Threads,  61035 MiB Core\n         ---------------------------------------------------------\n\n  ==> Geometry <==\n\n    Molecular point group: cs\n    Full point group: Cs\n\n    Geometry (in Bohr), charge = 0, multiplicity = 1:\n\n       Center              X                  Y                   Z               Mass       \n    ------------   -----------------  -----------------  -----------------  -----------------\n         C           -2.811399463449     1.608722142238     0.000000000000    12.000000000000\n         C           -2.303939968623    -2.999758629094     0.000000000000    12.000000000000\n         C           -6.165332634064    -1.445330389529     0.000000000000    12.000000000000\n         C           -5.448476366729     1.048662120710     0.000000000000    12.000000000000\n         C           -9.426070181351     1.102046883754     0.000000000000    12.000000000000\n         N           -1.376405694464    -0.601526100537     0.000000000000    14.003074004430\n         N           -4.709153145488    -3.527831256497     0.000000000000    14.003074004430\n         N           -7.541965991116     2.607465076256     0.000000000000    14.003074004430\n         N           -8.722424989358    -1.403556103799     0.000000000000    14.003074004430\n         N           -0.599044176044    -4.861318386652     0.000000000000    14.003074004430\n         O           -1.759642152707     3.640532995617     0.000000000000    15.994914619570\n         H            0.510644578800    -0.345965208509     0.000000000000     1.007825032230\n         H          -11.374954183166     1.648653944995     0.000000000000     1.007825032230\n         H           -9.840390744631    -2.909732076478     0.000000000000     1.007825032230\n         H           -1.254590168965    -6.615955550306     0.000000000000     1.007825032230\n         H            1.265731895380    -4.546049707964     0.000000000000     1.007825032230\n         C            5.773800179310    -1.631887932086     0.000000000000    12.000000000000\n         C            9.399285104428     1.101476186464     0.000000000000    12.000000000000\n         C            7.930160991891     3.156307683503     0.000000000000    12.000000000000\n         C            5.232531594373     2.717335642916     0.000000000000    12.000000000000\n         N            8.366770874822    -1.237776099991     0.000000000000    14.003074004430\n         N            4.270156439640     0.427083954894     0.000000000000    14.003074004430\n         N            3.664011667090     4.663711978163     0.000000000000    14.003074004430\n         O            5.000592278913    -3.783157822486     0.000000000000    15.994914619570\n         H            9.433999373352    -2.784679450125     0.000000000000     1.007825032230\n         H           11.426339517149     1.194528190608     0.000000000000     1.007825032230\n         H            8.702735834036     5.027762047054     0.000000000000     1.007825032230\n         H            4.318966175734     6.418774330195     0.000000000000     1.007825032230\n         H            1.782146802314     4.376148574200     0.000000000000     1.007825032230\n\n  Running in cs symmetry.\n\n  Rotational constants: A =      0.03012  B =      0.00652  C =      0.00536 [cm^-1]\n  Rotational constants: A =    902.90857  B =    195.51287  C =    160.71267 [MHz]\n  Nuclear repulsion = 1391.976909542552676\n\n  Charge       = 0\n  Multiplicity = 1\n  Electrons    = 136\n  Nalpha       = 68\n  Nbeta        = 68\n\n  ==> Algorithm <==\n\n  SCF Algorithm Type is DF.\n  DIIS enabled.\n  MOM disabled.\n  Fractional occupation disabled.\n  Guess Type is SAD.\n  Energy threshold   = 1.00e-06\n  Density threshold  = 1.00e-06\n  Integral threshold = 0.00e+00\n\n  ==> Primary Basis <==\n\n  Basis Set: DEF2-SVPD\n    Blend: DEF2-SVPD\n    Number of shells: 194\n    Number of basis function: 466\n    Number of Cartesian functions: 504\n    Spherical Harmonics?: true\n    Max angular momentum: 2\n\n  ==> DFT Potential <==\n\n   => Composite Functional: M06-2X-D3ZERO <= \n\n    Hybrid M06-2X Meta-GGA XC Functional\n\n    Y. Zhao and D. G. Truhlar,  Theor. Chem. Acc., 120, 215, 2008\n\n\n    Deriv               =              1\n    GGA                 =           TRUE\n    Meta                =           TRUE\n\n    Exchange Hybrid     =           TRUE\n    MP2 Hybrid          =          FALSE\n\n   => Exchange Functionals <=\n\n    1.0000   XC_HYB_MGGA_X_M06_2X\n\n   => Exact (HF) Exchange <=\n\n    0.5400               HF \n\n   => Correlation Functionals <=\n\n    1.0000   XC_MGGA_C_M06_2X\n\n   => LibXC Density Thresholds  <==\n\n    XC_MGGA_C_M06_2X:  1.00E-23 \n    XC_HYB_MGGA_X_M06_2X:  1.00E-20 \n\n   => Molecular Quadrature <=\n\n    Radial Scheme          =       TREUTLER\n    Pruning Scheme         =           NONE\n    Nuclear Scheme         =       TREUTLER\n\n    BS radius alpha        =              1\n    Pruning alpha          =              1\n    Radial Points          =             75\n    Spherical Points       =            302\n    Total Points           =         602904\n    Total Blocks           =           4442\n    Max Points             =            256\n    Max Functions          =            389\n    Weights Tolerance      =       1.00E-15\n\n   => Loading Basis Set <=\n\n    Name: (DEF2-SVPD AUX)\n    Role: JKFIT\n    Keyword: DF_BASIS_SCF\n    atoms 1-5, 17-20   entry C          line   198 file /home/ubuntu/pk/Applications/miniconda3/envs/psi4-1.4a2.dev923/share/psi4/basis/def2-universal-jkfit.gbs \n    atoms 6-10, 21-23  entry N          line   258 file /home/ubuntu/pk/Applications/miniconda3/envs/psi4-1.4a2.dev923/share/psi4/basis/def2-universal-jkfit.gbs \n    atoms 11, 24       entry O          line   318 file /home/ubuntu/pk/Applications/miniconda3/envs/psi4-1.4a2.dev923/share/psi4/basis/def2-universal-jkfit.gbs \n    atoms 12-16, 25-29 entry H          line    18 file /home/ubuntu/pk/Applications/miniconda3/envs/psi4-1.4a2.dev923/share/psi4/basis/def2-universal-jkfit.gbs \n\n  ==> Integral Setup <==\n\n  DFHelper Memory: AOs need 2.303 GiB; user supplied 32.499 GiB. Using in-core AOs.\n\n  ==> MemDFJK: Density-Fitted J/K Matrices <==\n\n    J tasked:                   Yes\n    K tasked:                   Yes\n    wK tasked:                   No\n    OpenMP threads:              16\n    Memory [MiB]:             33279\n    Algorithm:                 Core\n    Schwarz Cutoff:           1E-12\n    Mask sparsity (%):      15.8080\n    Fitting Condition:        1E-10\n\n   => Auxiliary Basis Set <=\n\n  Basis Set: (DEF2-SVPD AUX)\n    Blend: DEF2-UNIVERSAL-JKFIT\n    Number of shells: 535\n    Number of basis function: 1625\n    Number of Cartesian functions: 1931\n    Spherical Harmonics?: true\n    Max angular momentum: 4\n\n  Cached 100.0% of DFT collocation blocks in 12.204 [GiB].\n\n  Minimum eigenvalue in the overlap matrix is 1.8523414990E-05.\n  Reciprocal condition number of the overlap matrix is 1.5264780711E-06.\n    Using symmetric orthogonalization.\n\n  ==> Pre-Iterations <==\n\n  SCF Guess: Superposition of Atomic Densities via on-the-fly atomic UHF (no occupation information).\n\n   -------------------------\n    Irrep   Nso     Nmo    \n   -------------------------\n     A'       330     330 \n     A\"       136     136 \n   -------------------------\n    Total     466     466\n   -------------------------\n\n  ==> Iterations <==\n\n                           Total Energy        Delta E     RMS |[F,P]|\n\n   @DF-RKS iter SAD:  -937.09552184253914   -9.37096e+02   0.00000e+00 \n   @DF-RKS iter   1:  -935.88829259466888    1.20723e+00   3.42981e-03 DIIS\n   @DF-RKS iter   2:  -935.91863646678564   -3.03439e-02   3.50969e-03 DIIS\n   @DF-RKS iter   3:  -936.52192525541182   -6.03289e-01   6.82911e-04 DIIS\n   @DF-RKS iter   4:  -936.54544468135180   -2.35194e-02   1.65832e-04 DIIS\n   @DF-RKS iter   5:  -936.54682138448345   -1.37670e-03   5.16859e-05 DIIS\n   @DF-RKS iter   6:  -936.54697050108439   -1.49117e-04   1.63230e-05 DIIS\n   @DF-RKS iter   7:  -936.54698712049890   -1.66194e-05   6.15889e-06 DIIS\n   @DF-RKS iter   8:  -936.54698966346746   -2.54297e-06   2.23982e-06 DIIS\n   @DF-RKS iter   9:  -936.54699015238157   -4.88914e-07   9.80985e-07 DIIS\n  Energy and wave function converged.\n\n\n  ==> Post-Iterations <==\n\n    Orbital Energies [Eh]\n    ---------------------\n\n    Doubly Occupied:                                                      \n\n       1Ap   -19.611718     2Ap   -19.598557     3Ap   -14.831262  \n       4Ap   -14.808641     5Ap   -14.790817     6Ap   -14.789773  \n       7Ap   -14.765919     8Ap   -14.759014     9Ap   -14.740743  \n      10Ap   -14.739086    11Ap   -10.693106    12Ap   -10.668684  \n      13Ap   -10.667933    14Ap   -10.654265    15Ap   -10.643246  \n      16Ap   -10.614624    17Ap   -10.605738    18Ap   -10.580517  \n      19Ap   -10.552341    20Ap    -1.185926    21Ap    -1.158513  \n      22Ap    -1.131454    23Ap    -1.101832    24Ap    -1.100014  \n      25Ap    -1.069057    26Ap    -0.995576    27Ap    -0.993243  \n      28Ap    -0.987649    29Ap    -0.963126    30Ap    -0.896082  \n      31Ap    -0.840859    32Ap    -0.771003    33Ap    -0.758813  \n      34Ap    -0.749924    35Ap    -0.729635    36Ap    -0.697350  \n      37Ap    -0.672628    38Ap    -0.672118    39Ap    -0.663885  \n      40Ap    -0.625436    41Ap    -0.613993    42Ap    -0.607585  \n      43Ap    -0.587266    44Ap    -0.574929     1App   -0.563927  \n      45Ap    -0.553847     2App   -0.553544    46Ap    -0.538823  \n      47Ap    -0.526816    48Ap    -0.514004    49Ap    -0.508423  \n       3App   -0.501271    50Ap    -0.495732    51Ap    -0.491462  \n       4App   -0.477766     5App   -0.463422     6App   -0.443482  \n      52Ap    -0.380810    53Ap    -0.369329     7App   -0.369134  \n      54Ap    -0.360051     8App   -0.337860    55Ap    -0.337643  \n       9App   -0.333141    10App   -0.327726    56Ap    -0.322230  \n      11App   -0.313121    12App   -0.248893  \n\n    Virtual:                                                              \n\n      13App   -0.016893    57Ap     0.013976    14App    0.031238  \n      58Ap     0.036912    15App    0.038688    59Ap     0.040995  \n      60Ap     0.048114    16App    0.051749    61Ap     0.066271  \n      62Ap     0.070587    63Ap     0.072939    64Ap     0.088380  \n      65Ap     0.095188    17App    0.095743    18App    0.106477  \n      66Ap     0.107664    67Ap     0.117948    68Ap     0.125519  \n      19App    0.131776    69Ap     0.136985    70Ap     0.149225  \n      20App    0.152489    71Ap     0.155435    72Ap     0.160646  \n      21App    0.163397    73Ap     0.170364    22App    0.182471  \n      74Ap     0.186744    75Ap     0.191120    76Ap     0.199547  \n      23App    0.202106    77Ap     0.208573    24App    0.213742  \n      78Ap     0.220103    25App    0.222488    79Ap     0.229211  \n      26App    0.232496    80Ap     0.237466    81Ap     0.244513  \n      82Ap     0.248960    83Ap     0.250384    27App    0.250955  \n      84Ap     0.259009    28App    0.260701    29App    0.262880  \n      85Ap     0.270893    86Ap     0.278568    87Ap     0.280420  \n      88Ap     0.282956    89Ap     0.287111    30App    0.288959  \n      90Ap     0.294650    91Ap     0.302077    92Ap     0.311767  \n      93Ap     0.314046    31App    0.318401    94Ap     0.320017  \n      95Ap     0.324140    32App    0.327956    96Ap     0.328415  \n      97Ap     0.330053    98Ap     0.335960    33App    0.343903  \n      99Ap     0.348356   100Ap     0.351963    34App    0.353056  \n     101Ap     0.354323    35App    0.361369   102Ap     0.361611  \n     103Ap     0.361836   104Ap     0.368981   105Ap     0.372753  \n      36App    0.379730   106Ap     0.382068   107Ap     0.383270  \n      37App    0.386709   108Ap     0.391787   109Ap     0.395512  \n     110Ap     0.402575    38App    0.403437   111Ap     0.407330  \n     112Ap     0.411274   113Ap     0.419510   114Ap     0.423355  \n      39App    0.423793   115Ap     0.426140   116Ap     0.434894  \n      40App    0.438519   117Ap     0.442072   118Ap     0.449354  \n      41App    0.451845   119Ap     0.456409   120Ap     0.464820  \n     121Ap     0.468364   122Ap     0.473843    42App    0.474662  \n      43App    0.481003   123Ap     0.481944    44App    0.487275  \n     124Ap     0.487579   125Ap     0.494672   126Ap     0.497972  \n      45App    0.512222   127Ap     0.512323   128Ap     0.513368  \n      46App    0.516897   129Ap     0.525119   130Ap     0.540011  \n      47App    0.548400   131Ap     0.550596   132Ap     0.561735  \n     133Ap     0.565018    48App    0.573967   134Ap     0.580402  \n      49App    0.581276    50App    0.588000   135Ap     0.593789  \n      51App    0.599417   136Ap     0.608410    52App    0.609174  \n     137Ap     0.611635   138Ap     0.619561    53App    0.619865  \n     139Ap     0.623342   140Ap     0.632012   141Ap     0.640092  \n      54App    0.646000   142Ap     0.646933   143Ap     0.658930  \n     144Ap     0.662996   145Ap     0.666368    55App    0.669854  \n     146Ap     0.672363    56App    0.676936   147Ap     0.679102  \n     148Ap     0.685453   149Ap     0.689736    57App    0.696932  \n     150Ap     0.698238    58App    0.705334   151Ap     0.705511  \n     152Ap     0.716058   153Ap     0.717178    59App    0.721872  \n     154Ap     0.737106   155Ap     0.742319    60App    0.745446  \n     156Ap     0.746054   157Ap     0.747852   158Ap     0.756642  \n      61App    0.757707    62App    0.763761   159Ap     0.767683  \n      63App    0.768378   160Ap     0.771033   161Ap     0.773309  \n      64App    0.779615   162Ap     0.782367   163Ap     0.795369  \n      65App    0.800611   164Ap     0.801262   165Ap     0.804882  \n     166Ap     0.807659    66App    0.817862   167Ap     0.818331  \n     168Ap     0.823729   169Ap     0.835311    67App    0.836120  \n     170Ap     0.837721   171Ap     0.845655    68App    0.849020  \n     172Ap     0.856367    69App    0.860288    70App    0.866366  \n     173Ap     0.885221    71App    0.890407   174Ap     0.890998  \n     175Ap     0.893837    72App    0.897769   176Ap     0.904466  \n     177Ap     0.916701   178Ap     0.937187   179Ap     0.944208  \n      73App    0.958281   180Ap     0.961217    74App    0.964591  \n     181Ap     0.973691    75App    0.977414   182Ap     0.980683  \n     183Ap     0.993264   184Ap     0.994162   185Ap     1.008636  \n     186Ap     1.018740   187Ap     1.029521   188Ap     1.041445  \n     189Ap     1.068776    76App    1.070432   190Ap     1.075268  \n      77App    1.084963   191Ap     1.090405   192Ap     1.100521  \n     193Ap     1.108214    78App    1.130868   194Ap     1.137296  \n     195Ap     1.149220   196Ap     1.153229   197Ap     1.164493  \n     198Ap     1.174101   199Ap     1.179685   200Ap     1.193640  \n     201Ap     1.197733   202Ap     1.216853   203Ap     1.232215  \n      79App    1.237063   204Ap     1.238103   205Ap     1.250313  \n     206Ap     1.258279    80App    1.261613    81App    1.265302  \n     207Ap     1.274898   208Ap     1.277270    82App    1.286909  \n      83App    1.302230   209Ap     1.306407    84App    1.306603  \n     210Ap     1.317812   211Ap     1.334478    85App    1.339868  \n     212Ap     1.341574   213Ap     1.363992   214Ap     1.390174  \n      86App    1.402509   215Ap     1.405987   216Ap     1.425140  \n     217Ap     1.445688   218Ap     1.468134   219Ap     1.486235  \n     220Ap     1.506883    87App    1.512869   221Ap     1.528777  \n     222Ap     1.542071    88App    1.577240   223Ap     1.582200  \n     224Ap     1.597927    89App    1.602206    90App    1.615035  \n     225Ap     1.617373    91App    1.632908    92App    1.655585  \n     226Ap     1.657062   227Ap     1.686165    93App    1.686616  \n     228Ap     1.691348   229Ap     1.702078   230Ap     1.724327  \n     231Ap     1.729431    94App    1.744947   232Ap     1.754481  \n     233Ap     1.766036    95App    1.767650   234Ap     1.776801  \n      96App    1.778580   235Ap     1.781634   236Ap     1.802368  \n      97App    1.808056   237Ap     1.808790   238Ap     1.821670  \n     239Ap     1.829153    98App    1.834203   240Ap     1.841066  \n      99App    1.842456   100App    1.854425   241Ap     1.855906  \n     242Ap     1.857274   101App    1.864006   102App    1.876441  \n     243Ap     1.878080   244Ap     1.890751   103App    1.901186  \n     245Ap     1.902480   246Ap     1.913445   247Ap     1.928263  \n     104App    1.931835   248Ap     1.951097   105App    1.957166  \n     249Ap     1.963101   106App    1.973506   250Ap     1.976709  \n     251Ap     1.986448   252Ap     1.995151   107App    1.998698  \n     253Ap     2.023658   108App    2.024924   254Ap     2.048255  \n     109App    2.064536   255Ap     2.071442   256Ap     2.083283  \n     257Ap     2.087030   110App    2.089829   111App    2.110052  \n     258Ap     2.116345   259Ap     2.122744   260Ap     2.142295  \n     112App    2.143550   261Ap     2.153093   262Ap     2.166814  \n     263Ap     2.187324   264Ap     2.188129   113App    2.196489  \n     265Ap     2.200573   266Ap     2.222965   267Ap     2.237304  \n     268Ap     2.242629   269Ap     2.252901   270Ap     2.261505  \n     271Ap     2.272352   272Ap     2.285024   114App    2.316098  \n     273Ap     2.321808   274Ap     2.334551   275Ap     2.361516  \n     276Ap     2.366743   115App    2.376076   277Ap     2.383218  \n     278Ap     2.411605   279Ap     2.420922   280Ap     2.443996  \n     116App    2.448419   281Ap     2.478569   282Ap     2.507751  \n     283Ap     2.509050   284Ap     2.530518   285Ap     2.541517  \n     117App    2.543118   286Ap     2.582728   118App    2.589844  \n     287Ap     2.603610   288Ap     2.608388   119App    2.618072  \n     120App    2.630202   121App    2.647015   289Ap     2.648547  \n     290Ap     2.662157   122App    2.674387   291Ap     2.679274  \n     123App    2.685792   124App    2.700942   292Ap     2.703777  \n     125App    2.720306   293Ap     2.743804   126App    2.812366  \n     294Ap     2.824063   127App    2.829243   128App    2.831963  \n     295Ap     2.884247   129App    2.886098   130App    2.891647  \n     296Ap     2.893012   297Ap     2.906864   131App    2.930368  \n     298Ap     2.946522   299Ap     2.973360   132App    2.980799  \n     300Ap     3.019436   133App    3.046803   301Ap     3.049364  \n     134App    3.064919   302Ap     3.089003   303Ap     3.125379  \n     304Ap     3.132143   305Ap     3.148190   306Ap     3.165945  \n     307Ap     3.193843   308Ap     3.224495   309Ap     3.238560  \n     310Ap     3.257846   311Ap     3.265568   135App    3.290333  \n     312Ap     3.307689   136App    3.309327   313Ap     3.322550  \n     314Ap     3.339755   315Ap     3.383173   316Ap     3.397686  \n     317Ap     3.435020   318Ap     3.481471   319Ap     3.532879  \n     320Ap     3.556298   321Ap     3.586943   322Ap     3.643055  \n     323Ap     3.669109   324Ap     3.755628   325Ap     3.770218  \n     326Ap     3.787781   327Ap     3.813619   328Ap     3.844814  \n     329Ap     3.938277   330Ap     3.994369  \n\n    Final Occupation by Irrep:\n             Ap   App \n    DOCC [    56,   12 ]\n\n  @DF-RKS Final Energy:  -936.54699015238157\n\n   => Energetics <=\n\n    Nuclear Repulsion Energy =           1391.9769095425526757\n    One-Electron Energy =               -4038.2071931283198865\n    Two-Electron Energy =                1769.9194779695951638\n    DFT Exchange-Correlation Energy =     -60.2347039262095052\n    Empirical Dispersion Energy =          -0.0014806100000000\n    VV10 Nonlocal Energy =                  0.0000000000000000\n    Total Energy =                       -936.5469901523815679\n\nComputation Completed\n\n\nProperties will be evaluated at   0.000000,   0.000000,   0.000000 [a0]\n\nProperties computed using the SCF density matrix\n\n  Nuclear Dipole Moment: [e a0]\n     X:     7.4452      Y:     0.7317      Z:     0.0000\n\n  Electronic Dipole Moment: [e a0]\n     X:    -5.1636      Y:    -1.0416      Z:     0.0000\n\n  Dipole Moment: [e a0]\n     X:     2.2816      Y:    -0.3099      Z:     0.0000     Total:     2.3026\n\n  Dipole Moment: [D]\n     X:     5.7993      Y:    -0.7877      Z:     0.0000     Total:     5.8526\n\n\n*** tstop() called on bignimbus at Sat Apr 24 11:14:38 2021\nModule time:\n\tuser time   =     547.58 seconds =       9.13 minutes\n\tsystem time =      89.71 seconds =       1.50 minutes\n\ttotal time  =         51 seconds =       0.85 minutes\nTotal time:\n\tuser time   =     547.58 seconds =       9.13 minutes\n\tsystem time =      89.71 seconds =       1.50 minutes\n\ttotal time  =         51 seconds =       0.85 minutes\n\n    Psi4 stopped on: Saturday, 24 April 2021 11:14AM\n    Psi4 wall time for execution: 0:00:50.88\n\n*** Psi4 exiting successfully. Buy a developer a beer!\n",
 "stderr": null,
 "success": true,
 "error": null,
 "tag": "m062x-d3 def2-svpd gcgc_b"
}