{
 "id": null,
 "schema_name": "qcschema_output",
 "schema_version": 1,
 "molecule": {
  "validated": true,
  "symbols": [
   "C",
   "C",
   "C",
   "C",
   "C",
   "C",
   "C",
   "C",
   "C",
   "C",
   "C",
   "N",
   "N",
   "O",
   "O",
   "H",
   "H",
   "H",
   "H",
   "H",
   "H",
   "H",
   "H",
   "H",
   "H",
   "H",
   "H",
   "H",
   "H"
  ],
  "geometry": [
   3.5554869353951855,
   -3.23644091877854,
   0.8987056250420546,
   1.9118674021602333,
   -2.1200908793427033,
   -0.8500015780296057,
   -0.0895377578599026,
   -3.5708411847611807,
   -1.8005413780393948,
   -0.4747640977128567,
   -6.044851730949312,
   -0.9774258106692284,
   1.1492816523146046,
   -7.1168631263035325,
   0.8023390412743362,
   3.1792594713516618,
   -5.710740593063869,
   1.7242154754131813,
   2.245761221541251,
   0.606135743631911,
   -1.6208019673426013,
   0.5894710746351033,
   2.4603425768356337,
   -0.03477939668547637,
   1.1230805995851318,
   5.183783743501322,
   -0.9055878720099462,
   -3.646733649982087,
   0.9813503144721908,
   1.3272709438562589,
   -6.402859519713694,
   0.7233157709454254,
   0.5788449118686887,
   2.9003529027692156,
   6.4266093730618,
   0.4517494915748972,
   -2.1008904362044465,
   2.0184924833594606,
   -0.4250720922807827,
   -2.8823526603172738,
   0.225894501297913,
   3.416123180331954,
   0.03665248361979522,
   6.059902349238332,
   -2.7759424149557046,
   -6.847648137314955,
   -1.289714984198526,
   0.40530569258952154,
   3.2907967764545596,
   8.236747793019846,
   -0.030142008773602413,
   -7.5839118919590796,
   1.5008927181443117,
   2.0856010304673585,
   -6.862550517540313,
   1.6648434670629062,
   -1.2028077764742098,
   -2.8259896888993694,
   2.8377152149111846,
   -2.004539203008694,
   0.9944960751044792,
   2.2142076387208767,
   1.9726955636496297,
   1.765243552085961,
   0.8727024006151176,
   -3.618098862765987,
   4.218451993085055,
   1.1801306056091,
   -1.3713845749479217,
   -1.3569543934909605,
   -2.743813884311314,
   -3.1906276953784207,
   5.141386673854155,
   -2.150908532996669,
   1.6280132978183732,
   -2.0421180639765826,
   -7.138797177441721,
   -1.729223114064617,
   4.456661419829641,
   -6.532635397356992,
   3.1048512723987964,
   0.8413810157892601,
   -9.03585732999245,
   1.4615057494520332,
   3.4748976750489122,
   5.761297275524113,
   2.171277433543366
  ],
  "name": "C11H14N2O2",
  "molecular_charge": 0.0,
  "molecular_multiplicity": 1,
  "masses": [
   12.0,
   12.0,
   12.0,
   12.0,
   12.0,
   12.0,
   12.0,
   12.0,
   12.0,
   12.0,
   12.0,
   14.00307400443,
   14.00307400443,
   15.99491461957,
   15.99491461957,
   1.00782503223,
   1.00782503223,
   1.00782503223,
   1.00782503223,
   1.00782503223,
   1.00782503223,
   1.00782503223,
   1.00782503223,
   1.00782503223,
   1.00782503223,
   1.00782503223,
   1.00782503223,
   1.00782503223,
   1.00782503223
  ],
  "real": [
   true,
   true,
   true,
   true,
   true,
   true,
   true,
   true,
   true,
   true,
   true,
   true,
   true,
   true,
   true,
   true,
   true,
   true,
   true,
   true,
   true,
   true,
   true,
   true,
   true,
   true,
   true,
   true,
   true
  ],
  "atom_labels": [
   "",
   "",
   "",
   "",
   "",
   "",
   "",
   "",
   "",
   "",
   "",
   "",
   "",
   "",
   "",
   "",
   "",
   "",
   "",
   "",
   "",
   "",
   "",
   "",
   "",
   "",
   "",
   "",
   ""
  ],
  "atomic_numbers": [
   6,
   6,
   6,
   6,
   6,
   6,
   6,
   6,
   6,
   6,
   6,
   7,
   7,
   8,
   8,
   1,
   1,
   1,
   1,
   1,
   1,
   1,
   1,
   1,
   1,
   1,
   1,
   1,
   1
  ],
  "mass_numbers": [
   12,
   12,
   12,
   12,
   12,
   12,
   12,
   12,
   12,
   12,
   12,
   14,
   14,
   16,
   16,
   1,
   1,
   1,
   1,
   1,
   1,
   1,
   1,
   1,
   1,
   1,
   1,
   1,
   1
  ],
  "fragments": [
   [
    0,
    1,
    2,
    3,
    4,
    5,
    6,
    7,
    8,
    9,
    10,
    11,
    12,
    13,
    14,
    15,
    16,
    17,
    18,
    19,
    20,
    21,
    22,
    23,
    24,
    25,
    26,
    27,
    28
   ]
  ],
  "fragment_charges": [
   0.0
  ],
  "fragment_multiplicities": [
   1
  ],
  "fix_com": false,
  "fix_orientation": false,
  "provenance": {
   "creator": "QCElemental",
   "version": "v0.19.0",
   "routine": "qcelemental.molparse.from_string"
  }
 },
 "driver": "energy",
 "model": {
  "method": "b97m-v",
  "basis": "pcseg-1"
 },
 "keywords": {},
 "protocols": {},
 "extras": {
  "qcvars": {
   "CURRENT DIPOLE X": 1.6677453342018353,
   "CURRENT DIPOLE Y": 1.2077000179617885,
   "CURRENT DIPOLE Z": -0.04386379669409818,
   "CURRENT ENERGY": -687.3805542859517,
   "CURRENT REFERENCE ENERGY": -687.3805542859517,
   "DFT FUNCTIONAL TOTAL ENERGY": -687.3805542859517,
   "DFT TOTAL ENERGY": -687.3805542859517,
   "DFT VV10 ENERGY": 0.41455979431699774,
   "DFT XC ENERGY": -96.29107353405462,
   "NUCLEAR REPULSION ENERGY": 980.0399976067333,
   "ONE-ELECTRON ENERGY": -2878.0673844805933,
   "PCM POLARIZATION ENERGY": 0.0,
   "PE ENERGY": 0.0,
   "SCF DIPOLE X": 1.6677453342018353,
   "SCF DIPOLE Y": 1.2077000179617885,
   "SCF DIPOLE Z": -0.04386379669409818,
   "SCF ITERATION ENERGY": -687.3805542859517,
   "SCF ITERATIONS": 10.0,
   "SCF TOTAL ENERGY": -687.3805542859517,
   "TWO-ELECTRON ENERGY": 1306.5233463276459,
   "XC GRID RADIAL POINTS": 75.0,
   "XC GRID SPHERICAL POINTS": 302.0,
   "XC GRID TOTAL POINTS": 601554.0,
   "CURRENT DIPOLE": [
    0.6561415018238463,
    0.47514574754746874,
    -0.017257345500136356
   ],
   "SCF DIPOLE": [
    0.6561415018238463,
    0.47514574754746874,
    -0.017257345500136356
   ]
  }
 },
 "provenance": {
  "creator": "Psi4",
  "version": "1.4a2.dev923",
  "routine": "psi4.schema_runner.run_qcschema",
  "qcengine_version": "v0.17.0",
  "memory": 256.0,
  "wall_time": 91.61117029190063,
  "nthreads": 16,
  "cpu": "AMD EPYC Processor (with IBPB)",
  "username": "ubuntu",
  "hostname": "bignimbus"
 },
 "properties": {
  "calcinfo_nbasis": 280,
  "calcinfo_nmo": 280,
  "calcinfo_nalpha": 55,
  "calcinfo_nbeta": 55,
  "calcinfo_natom": 29,
  "nuclear_repulsion_energy": 980.0399976067333,
  "return_energy": -687.3805542859517,
  "scf_one_electron_energy": -2878.0673844805933,
  "scf_two_electron_energy": 1306.5233463276459,
  "scf_vv10_energy": 0.41455979431699774,
  "scf_xc_energy": -96.29107353405462,
  "scf_dipole_moment": [
   0.6561415018238463,
   0.47514574754746874,
   -0.017257345500136356
  ],
  "scf_total_energy": -687.3805542859517,
  "scf_iterations": 10
 },
 "wavefunction": null,
 "return_result": -687.3805542859517,
 "stdout": "\n    -----------------------------------------------------------------------\n          Psi4: An Open-Source Ab Initio Electronic Structure Package\n                               Psi4 1.4a2.dev923 \n\n                         Git: Rev {master} 5de566e \n\n\n    D. G. A. Smith, L. A. Burns, A. C. Simmonett, R. M. Parrish,\n    M. C. Schieber, R. Galvelis, P. Kraus, H. Kruse, R. Di Remigio,\n    A. Alenaizan, A. M. James, S. Lehtola, J. P. Misiewicz, M. Scheurer,\n    R. A. Shaw, J. B. Schriber, Y. Xie, Z. L. Glick, D. A. Sirianni,\n    J. S. O'Brien, J. M. Waldrop, A. Kumar, E. G. Hohenstein,\n    B. P. Pritchard, B. R. Brooks, H. F. Schaefer III, A. Yu. Sokolov,\n    K. Patkowski, A. E. DePrince III, U. Bozkaya, R. A. King,\n    F. A. Evangelista, J. M. Turney, T. D. Crawford, C. D. Sherrill,\n    J. Chem. Phys. 152(18) 184108 (2020). https://doi.org/10.1063/5.0006002\n\n                            Additional Code Authors\n    E. T. Seidl, C. L. Janssen, E. F. Valeev, M. L. Leininger,\n    J. F. Gonthier, R. M. Richard, H. R. McAlexander, M. Saitow, X. Wang,\n    P. Verma, and M. H. Lechner\n\n             Previous Authors, Complete List of Code Contributors,\n                       and Citations for Specific Modules\n    https://github.com/psi4/psi4/blob/master/codemeta.json\n    https://github.com/psi4/psi4/graphs/contributors\n    http://psicode.org/psi4manual/master/introduction.html#citing-psifour\n\n    -----------------------------------------------------------------------\n\n\n    Psi4 started on: Sunday, 25 April 2021 01:27AM\n\n    Process ID: 3934641\n    Host:       bignimbus\n    PSIDATADIR: /home/ubuntu/pk/Applications/miniconda3/envs/psi4-1.4a2.dev923/share/psi4\n    Memory:     238.4 GiB\n    Threads:    16\n    \n  ==> Input QCSchema <==\n\n--------------------------------------------------------------------------\n{'driver': 'energy',\n 'extras': {},\n 'id': None,\n 'keywords': {},\n 'model': {'basis': 'pcseg-1', 'method': 'b97m-v'},\n 'molecule': {'atom_labels': ['', '', '', '', '', '', '', '', '', '', '', '', '', '', '', '', '', '', '', '', '', '',\n                              '', '', '', '', '', '', ''],\n              'atomic_numbers': [6, 6, 6, 6, 6, 6, 6, 6, 6, 6, 6, 7, 7, 8, 8, 1, 1, 1, 1, 1, 1, 1, 1, 1, 1, 1, 1, 1, 1],\n              'fix_com': False,\n              'fix_orientation': False,\n              'fragment_charges': [0.0],\n              'fragment_multiplicities': [1],\n              'fragments': [[0, 1, 2, 3, 4, 5, 6, 7, 8, 9, 10, 11, 12, 13, 14, 15, 16, 17, 18, 19, 20, 21, 22, 23, 24,\n                             25, 26, 27, 28]],\n              'geometry': [3.5554869353951926, -3.236440918778536, 0.8987056250420729, 1.9118674021602402,\n                           -2.1200908793426994, -0.8500015780295875, -0.0895377578598957, -3.5708411847611767,\n                           -1.8005413780393766, -0.47476409771284983, -6.044851730949308, -0.9774258106692102,\n                           1.1492816523146114, -7.116863126303528, 0.8023390412743544, 3.179259471351669,\n                           -5.710740593063864, 1.7242154754131995, 2.245761221541258, 0.6061357436319152,\n                           -1.620801967342583, 0.5894710746351102, 2.4603425768356377, -0.03477939668545815,\n                           1.1230805995851387, 5.183783743501326, -0.905587872009928, -3.64673364998208,\n                           0.981350314472195, 1.327270943856277, -6.402859519713687, 0.7233157709454296,\n                           0.5788449118687069, 2.9003529027692228, 6.426609373061805, 0.4517494915749154,\n                           -2.1008904362044394, 2.0184924833594646, -0.4250720922807645, -2.8823526603172667,\n                           0.22589450129791722, 3.4161231803319723, 0.03665248361980211, 6.059902349238336,\n                           -2.7759424149556864, -6.847648137314948, -1.2897149841985218, 0.40530569258953975,\n                           3.2907967764545667, 8.23674779301985, -0.030142008773584198, -7.5839118919590724,\n                           1.500892718144316, 2.0856010304673767, -6.862550517540306, 1.6648434670629104,\n                           -1.2028077764741916, -2.8259896888993623, 2.8377152149111886, -2.004539203008676,\n                           0.9944960751044861, 2.2142076387208807, 1.972695563649648, 1.765243552085968,\n                           0.8727024006151218, -3.6180988627659687, 4.218451993085062, 1.1801306056091043,\n                           -1.3713845749479034, -1.3569543934909536, -2.74381388431131, -3.1906276953784025,\n                           5.1413866738541625, -2.150908532996665, 1.6280132978183914, -2.0421180639765755,\n                           -7.138797177441717, -1.7292231140645988, 4.456661419829648, -6.532635397356987,\n                           3.1048512723988146, 0.8413810157892669, -9.035857329992446, 1.4615057494520514,\n                           3.4748976750489193, 5.761297275524117, 2.171277433543384],\n              'mass_numbers': [12, 12, 12, 12, 12, 12, 12, 12, 12, 12, 12, 14, 14, 16, 16, 1, 1, 1, 1, 1, 1, 1, 1, 1, 1,\n                               1, 1, 1, 1],\n              'masses': [12.0, 12.0, 12.0, 12.0, 12.0, 12.0, 12.0, 12.0, 12.0, 12.0, 12.0, 14.00307400443,\n                         14.00307400443, 15.99491461957, 15.99491461957, 1.00782503223, 1.00782503223, 1.00782503223,\n                         1.00782503223, 1.00782503223, 1.00782503223, 1.00782503223, 1.00782503223, 1.00782503223,\n                         1.00782503223, 1.00782503223, 1.00782503223, 1.00782503223, 1.00782503223],\n              'molecular_charge': 0.0,\n              'molecular_multiplicity': 1,\n              'name': 'C11H14N2O2',\n              'provenance': {'creator': 'QCElemental',\n                             'routine': 'qcelemental.molparse.from_string',\n                             'version': 'v0.19.0'},\n              'real': [True, True, True, True, True, True, True, True, True, True, True, True, True, True, True, True,\n                       True, True, True, True, True, True, True, True, True, True, True, True, True],\n              'symbols': ['C', 'C', 'C', 'C', 'C', 'C', 'C', 'C', 'C', 'C', 'C', 'N', 'N', 'O', 'O', 'H', 'H', 'H', 'H',\n                          'H', 'H', 'H', 'H', 'H', 'H', 'H', 'H', 'H', 'H'],\n              'validated': True},\n 'protocols': {},\n 'provenance': {'creator': 'QCElemental', 'routine': 'qcelemental.models.results', 'version': 'v0.17.0'},\n 'schema_name': 'qcschema_input',\n 'schema_version': 1}\n--------------------------------------------------------------------------\n\nScratch directory: /home/ubuntu/pk/scratch/tmproz_qkj1_psi_scratch/\n\n*** tstart() called on bignimbus\n*** at Sun Apr 25 01:27:56 2021\n\n   => Loading Basis Set <=\n\n    Name: PCSEG-1\n    Role: ORBITAL\n    Keyword: BASIS\n    atoms 1-11  entry C          line    90 file /home/ubuntu/pk/Applications/miniconda3/envs/psi4-1.4a2.dev923/share/psi4/basis/pcseg-1.gbs \n    atoms 12-13 entry N          line   111 file /home/ubuntu/pk/Applications/miniconda3/envs/psi4-1.4a2.dev923/share/psi4/basis/pcseg-1.gbs \n    atoms 14-15 entry O          line   132 file /home/ubuntu/pk/Applications/miniconda3/envs/psi4-1.4a2.dev923/share/psi4/basis/pcseg-1.gbs \n    atoms 16-29 entry H          line    13 file /home/ubuntu/pk/Applications/miniconda3/envs/psi4-1.4a2.dev923/share/psi4/basis/pcseg-1.gbs \n\n\n         ---------------------------------------------------------\n                                   SCF\n               by Justin Turney, Rob Parrish, Andy Simmonett\n                          and Daniel G. A. Smith\n                              RKS Reference\n                       16 Threads, 244140 MiB Core\n         ---------------------------------------------------------\n\n  ==> Geometry <==\n\n    Molecular point group: c1\n    Full point group: C1\n\n    Geometry (in Bohr), charge = 0, multiplicity = 1:\n\n       Center              X                  Y                   Z               Mass       \n    ------------   -----------------  -----------------  -----------------  -----------------\n         C            3.555486935395    -3.236440918779     0.898705625042    12.000000000000\n         C            1.911867402160    -2.120090879343    -0.850001578030    12.000000000000\n         C           -0.089537757860    -3.570841184761    -1.800541378039    12.000000000000\n         C           -0.474764097713    -6.044851730949    -0.977425810669    12.000000000000\n         C            1.149281652315    -7.116863126304     0.802339041274    12.000000000000\n         C            3.179259471352    -5.710740593064     1.724215475413    12.000000000000\n         C            2.245761221541     0.606135743632    -1.620801967343    12.000000000000\n         C            0.589471074635     2.460342576836    -0.034779396685    12.000000000000\n         C            1.123080599585     5.183783743501    -0.905587872010    12.000000000000\n         C           -3.646733649982     0.981350314472     1.327270943856    12.000000000000\n         C           -6.402859519714     0.723315770945     0.578844911869    12.000000000000\n         N            2.900352902769     6.426609373062     0.451749491575    14.003074004430\n         N           -2.100890436204     2.018492483359    -0.425072092281    14.003074004430\n         O           -2.882352660317     0.225894501298     3.416123180332    15.994914619570\n         O            0.036652483620     6.059902349238    -2.775942414956    15.994914619570\n         H           -6.847648137315    -1.289714984199     0.405305692590     1.007825032230\n         H            3.290796776455     8.236747793020    -0.030142008774     1.007825032230\n         H           -7.583911891959     1.500892718144     2.085601030467     1.007825032230\n         H           -6.862550517540     1.664843467063    -1.202807776474     1.007825032230\n         H           -2.825989688899     2.837715214911    -2.004539203009     1.007825032230\n         H            0.994496075104     2.214207638721     1.972695563650     1.007825032230\n         H            1.765243552086     0.872702400615    -3.618098862766     1.007825032230\n         H            4.218451993085     1.180130605609    -1.371384574948     1.007825032230\n         H           -1.356954393491    -2.743813884311    -3.190627695378     1.007825032230\n         H            5.141386673854    -2.150908532997     1.628013297818     1.007825032230\n         H           -2.042118063977    -7.138797177442    -1.729223114065     1.007825032230\n         H            4.456661419830    -6.532635397357     3.104851272399     1.007825032230\n         H            0.841381015789    -9.035857329992     1.461505749452     1.007825032230\n         H            3.474897675049     5.761297275524     2.171277433543     1.007825032230\n\n  Running in c1 symmetry.\n\n  Rotational constants: A =      0.02825  B =      0.01408  C =      0.01109 [cm^-1]\n  Rotational constants: A =    846.77580  B =    422.03348  C =    332.43779 [MHz]\n  Nuclear repulsion =  980.039997606733323\n\n  Charge       = 0\n  Multiplicity = 1\n  Electrons    = 110\n  Nalpha       = 55\n  Nbeta        = 55\n\n  ==> Algorithm <==\n\n  SCF Algorithm Type is DF.\n  DIIS enabled.\n  MOM disabled.\n  Fractional occupation disabled.\n  Guess Type is SAD.\n  Energy threshold   = 1.00e-06\n  Density threshold  = 1.00e-06\n  Integral threshold = 0.00e+00\n\n  ==> Primary Basis <==\n\n  Basis Set: PCSEG-1\n    Blend: PCSEG-1\n    Number of shells: 132\n    Number of basis function: 280\n    Number of Cartesian functions: 295\n    Spherical Harmonics?: true\n    Max angular momentum: 2\n\n  ==> DFT Potential <==\n\n   => Composite Functional: B97M-V <= \n\n    B97M-V GGA Exchange-Correlation Functional\n\n    N. Mardirossian and M. Head-Gordon, J. Chem. Phys. 142, 074111 (2015)\n\n    Deriv               =              1\n    GGA                 =           TRUE\n    Meta                =           TRUE\n\n    Exchange Hybrid     =          FALSE\n    MP2 Hybrid          =          FALSE\n\n   => Exchange-Correlation Functionals <=\n\n    1.0000   B97M-V exchange-correlation functional\n\n   => LibXC Density Thresholds  <==\n\n    XC_MGGA_XC_B97M_V:  1.00E-23 \n\n   => VV10 Non-Local Parameters <=\n\n    VV10 B              =     6.0000E+00\n    VV10 C              =     1.0000E-02\n\n   => Molecular Quadrature <=\n\n    Radial Scheme          =       TREUTLER\n    Pruning Scheme         =           NONE\n    Nuclear Scheme         =       TREUTLER\n\n    BS radius alpha        =              1\n    Pruning alpha          =              1\n    Radial Points          =             75\n    Spherical Points       =            302\n    Total Points           =         601554\n    Total Blocks           =           4328\n    Max Points             =            256\n    Max Functions          =            229\n    Weights Tolerance      =       1.00E-15\n\n   => Loading Basis Set <=\n\n    Name: (PCSEG-1 AUX)\n    Role: JKFIT\n    Keyword: DF_BASIS_SCF\n    atoms 1-11  entry C          line   198 file /home/ubuntu/pk/Applications/miniconda3/envs/psi4-1.4a2.dev923/share/psi4/basis/def2-universal-jkfit.gbs \n    atoms 12-13 entry N          line   258 file /home/ubuntu/pk/Applications/miniconda3/envs/psi4-1.4a2.dev923/share/psi4/basis/def2-universal-jkfit.gbs \n    atoms 14-15 entry O          line   318 file /home/ubuntu/pk/Applications/miniconda3/envs/psi4-1.4a2.dev923/share/psi4/basis/def2-universal-jkfit.gbs \n    atoms 16-29 entry H          line    18 file /home/ubuntu/pk/Applications/miniconda3/envs/psi4-1.4a2.dev923/share/psi4/basis/def2-universal-jkfit.gbs \n\n  ==> Integral Setup <==\n\n  DFHelper Memory: AOs need 0.697 GiB; user supplied 172.298 GiB. Using in-core AOs.\n\n  ==> MemDFJK: Density-Fitted J/K Matrices <==\n\n    J tasked:                   Yes\n    K tasked:                    No\n    wK tasked:                   No\n    OpenMP threads:              16\n    Memory [MiB]:            176432\n    Algorithm:                 Core\n    Schwarz Cutoff:           1E-12\n    Mask sparsity (%):      18.7041\n    Fitting Condition:        1E-10\n\n   => Auxiliary Basis Set <=\n\n  Basis Set: (PCSEG-1 AUX)\n    Blend: DEF2-UNIVERSAL-JKFIT\n    Number of shells: 459\n    Number of basis function: 1385\n    Number of Cartesian functions: 1631\n    Spherical Harmonics?: true\n    Max angular momentum: 4\n\n  Cached 100.0% of DFT collocation blocks in 6.516 [GiB].\n\n  Minimum eigenvalue in the overlap matrix is 4.1586254587E-04.\n  Reciprocal condition number of the overlap matrix is 6.2588571238E-05.\n    Using symmetric orthogonalization.\n\n  ==> Pre-Iterations <==\n\n  SCF Guess: Superposition of Atomic Densities via on-the-fly atomic UHF (no occupation information).\n\n   -------------------------\n    Irrep   Nso     Nmo    \n   -------------------------\n     A        280     280 \n   -------------------------\n    Total     280     280\n   -------------------------\n\n  ==> Iterations <==\n\n                           Total Energy        Delta E     RMS |[F,P]|\n\n   @DF-RKS iter SAD:  -686.22815787161949   -6.86228e+02   0.00000e+00 \n   @DF-RKS iter   1:  -686.34926006108890   -1.21102e-01   5.01791e-03 DIIS\n   @DF-RKS iter   2:  -685.53778986556347    8.11470e-01   6.84084e-03 DIIS\n   @DF-RKS iter   3:  -687.31092266776523   -1.77313e+00   1.41624e-03 DIIS\n   @DF-RKS iter   4:  -687.37090957574901   -5.99869e-02   5.38912e-04 DIIS\n   @DF-RKS iter   5:  -687.37940276550660   -8.49319e-03   1.76752e-04 DIIS\n   @DF-RKS iter   6:  -687.38041608863114   -1.01332e-03   5.92276e-05 DIIS\n   @DF-RKS iter   7:  -687.38051658520840   -1.00497e-04   2.82422e-05 DIIS\n   @DF-RKS iter   8:  -687.38055170466384   -3.51195e-05   7.75328e-06 DIIS\n   @DF-RKS iter   9:  -687.38055402052566   -2.31586e-06   2.90364e-06 DIIS\n   @DF-RKS iter  10:  -687.38055428595169   -2.65426e-07   9.49955e-07 DIIS\n  Energy and wave function converged.\n\n\n  ==> Post-Iterations <==\n\n    Orbital Energies [Eh]\n    ---------------------\n\n    Doubly Occupied:                                                      \n\n       1A    -19.120041     2A    -19.088528     3A    -14.372379  \n       4A    -14.353196     5A    -10.296610     6A    -10.274436  \n       7A    -10.236685     8A    -10.195255     9A    -10.191033  \n      10A    -10.180128    11A    -10.180050    12A    -10.179628  \n      13A    -10.179069    14A    -10.178238    15A    -10.177696  \n      16A     -1.045594    17A     -1.014269    18A     -0.920910  \n      19A     -0.916704    20A     -0.845614    21A     -0.781917  \n      22A     -0.736788    23A     -0.731822    24A     -0.703030  \n      25A     -0.649715    26A     -0.591923    27A     -0.587624  \n      28A     -0.567653    29A     -0.562124    30A     -0.537820  \n      31A     -0.493449    32A     -0.474578    33A     -0.460618  \n      34A     -0.446778    35A     -0.439855    36A     -0.431444  \n      37A     -0.424596    38A     -0.408761    39A     -0.401783  \n      40A     -0.396854    41A     -0.383699    42A     -0.376855  \n      43A     -0.367469    44A     -0.363329    45A     -0.351063  \n      46A     -0.337691    47A     -0.326231    48A     -0.319526  \n      49A     -0.317288    50A     -0.271288    51A     -0.252866  \n      52A     -0.240212    53A     -0.235488    54A     -0.224115  \n      55A     -0.218510  \n\n    Virtual:                                                              \n\n      56A     -0.039103    57A     -0.033484    58A     -0.017215  \n      59A      0.001510    60A      0.008012    61A      0.024066  \n      62A      0.039907    63A      0.055843    64A      0.059073  \n      65A      0.069731    66A      0.078902    67A      0.093251  \n      68A      0.099627    69A      0.111306    70A      0.116329  \n      71A      0.121554    72A      0.122916    73A      0.126238  \n      74A      0.133754    75A      0.150118    76A      0.178607  \n      77A      0.180058    78A      0.203966    79A      0.217967  \n      80A      0.249078    81A      0.256849    82A      0.260883  \n      83A      0.272665    84A      0.277301    85A      0.289013  \n      86A      0.334521    87A      0.348575    88A      0.372995  \n      89A      0.377130    90A      0.396554    91A      0.401890  \n      92A      0.412685    93A      0.419741    94A      0.432967  \n      95A      0.439356    96A      0.451310    97A      0.463244  \n      98A      0.470161    99A      0.480708   100A      0.483503  \n     101A      0.491056   102A      0.496760   103A      0.500959  \n     104A      0.502180   105A      0.509980   106A      0.524322  \n     107A      0.534366   108A      0.545200   109A      0.567043  \n     110A      0.574028   111A      0.580166   112A      0.593135  \n     113A      0.602249   114A      0.604852   115A      0.612571  \n     116A      0.618241   117A      0.620805   118A      0.627570  \n     119A      0.631194   120A      0.637880   121A      0.643953  \n     122A      0.651085   123A      0.656091   124A      0.670134  \n     125A      0.677060   126A      0.686701   127A      0.690562  \n     128A      0.705294   129A      0.724371   130A      0.732312  \n     131A      0.757156   132A      0.765966   133A      0.781416  \n     134A      0.800457   135A      0.850457   136A      0.859026  \n     137A      0.875287   138A      0.899822   139A      0.922667  \n     140A      0.932963   141A      0.960960   142A      0.974035  \n     143A      0.978802   144A      1.008370   145A      1.016802  \n     146A      1.022780   147A      1.048353   148A      1.072601  \n     149A      1.082407   150A      1.129251   151A      1.135439  \n     152A      1.163778   153A      1.173986   154A      1.198973  \n     155A      1.235676   156A      1.251266   157A      1.260337  \n     158A      1.269323   159A      1.278734   160A      1.308093  \n     161A      1.336507   162A      1.355866   163A      1.359097  \n     164A      1.374504   165A      1.389499   166A      1.408194  \n     167A      1.444019   168A      1.468672   169A      1.484127  \n     170A      1.502205   171A      1.538527   172A      1.553528  \n     173A      1.570590   174A      1.591578   175A      1.638133  \n     176A      1.686377   177A      1.708935   178A      1.715357  \n     179A      1.728148   180A      1.746352   181A      1.766835  \n     182A      1.795707   183A      1.805513   184A      1.815842  \n     185A      1.829571   186A      1.834409   187A      1.856743  \n     188A      1.858141   189A      1.862604   190A      1.877863  \n     191A      1.880825   192A      1.890028   193A      1.897059  \n     194A      1.906284   195A      1.916004   196A      1.936117  \n     197A      1.952848   198A      1.970297   199A      1.979751  \n     200A      1.986054   201A      1.995670   202A      2.013091  \n     203A      2.054973   204A      2.073377   205A      2.085138  \n     206A      2.114050   207A      2.122145   208A      2.147017  \n     209A      2.152352   210A      2.175470   211A      2.195052  \n     212A      2.208646   213A      2.241172   214A      2.242783  \n     215A      2.246274   216A      2.254766   217A      2.266992  \n     218A      2.281662   219A      2.296831   220A      2.299096  \n     221A      2.308278   222A      2.317734   223A      2.334338  \n     224A      2.351328   225A      2.353985   226A      2.354436  \n     227A      2.370004   228A      2.377802   229A      2.402760  \n     230A      2.416599   231A      2.436299   232A      2.447652  \n     233A      2.454630   234A      2.508380   235A      2.518267  \n     236A      2.540327   237A      2.545106   238A      2.562818  \n     239A      2.593335   240A      2.624593   241A      2.635935  \n     242A      2.657088   243A      2.671800   244A      2.693794  \n     245A      2.698711   246A      2.704980   247A      2.740056  \n     248A      2.763359   249A      2.787598   250A      2.815338  \n     251A      2.832922   252A      2.841319   253A      2.866776  \n     254A      2.901618   255A      2.910121   256A      2.940041  \n     257A      2.962399   258A      3.057919   259A      3.067160  \n     260A      3.090531   261A      3.112819   262A      3.184649  \n     263A      3.186540   264A      3.191850   265A      3.194938  \n     266A      3.205902   267A      3.235399   268A      3.251047  \n     269A      3.324424   270A      3.337552   271A      3.357234  \n     272A      3.374809   273A      3.407032   274A      3.429642  \n     275A      3.466704   276A      3.487922   277A      3.540341  \n     278A      3.617746   279A      3.649240   280A      3.918308  \n\n    Final Occupation by Irrep:\n              A \n    DOCC [    55 ]\n\n  @DF-RKS Final Energy:  -687.38055428595169\n\n   => Energetics <=\n\n    Nuclear Repulsion Energy =            980.0399976067333228\n    One-Electron Energy =               -2878.0673844805933186\n    Two-Electron Energy =                1306.5233463276458679\n    DFT Exchange-Correlation Energy =     -96.2910735340546182\n    Empirical Dispersion Energy =           0.0000000000000000\n    VV10 Nonlocal Energy =                  0.4145597943169977\n    Total Energy =                       -687.3805542859516891\n\nComputation Completed\n\n\nProperties will be evaluated at   0.000000,   0.000000,   0.000000 [a0]\n\nProperties computed using the SCF density matrix\n\n  Nuclear Dipole Moment: [e a0]\n     X:    -1.6633      Y:    -2.2905      Z:    -0.1560\n\n  Electronic Dipole Moment: [e a0]\n     X:     2.3195      Y:     2.7656      Z:     0.1387\n\n  Dipole Moment: [e a0]\n     X:     0.6561      Y:     0.4751      Z:    -0.0173     Total:     0.8103\n\n  Dipole Moment: [D]\n     X:     1.6677      Y:     1.2077      Z:    -0.0439     Total:     2.0596\n\n\n*** tstop() called on bignimbus at Sun Apr 25 01:29:23 2021\nModule time:\n\tuser time   =    1320.77 seconds =      22.01 minutes\n\tsystem time =      12.55 seconds =       0.21 minutes\n\ttotal time  =         87 seconds =       1.45 minutes\nTotal time:\n\tuser time   =    1320.77 seconds =      22.01 minutes\n\tsystem time =      12.55 seconds =       0.21 minutes\n\ttotal time  =         87 seconds =       1.45 minutes\n\n    Psi4 stopped on: Sunday, 25 April 2021 01:29AM\n    Psi4 wall time for execution: 0:01:26.93\n\n*** Psi4 exiting successfully. Buy a developer a beer!\n",
 "stderr": null,
 "success": true,
 "error": null,
 "tag": "b97m-v pcseg-1 phe_a"
}