{
 "id": null,
 "schema_name": "qcschema_output",
 "schema_version": 1,
 "molecule": {
  "validated": true,
  "symbols": [
   "C",
   "C",
   "C",
   "C",
   "C",
   "N",
   "N",
   "N",
   "N",
   "N",
   "H",
   "H",
   "H",
   "H",
   "H"
  ],
  "geometry": [
   -2.6005148446510584,
   0.057862058844925304,
   -0.05834799091184591,
   -0.18166540406503784,
   -1.0514071767988198,
   0.03991776761196013,
   1.8611285375548743,
   0.6342285271095628,
   0.08527119462294801,
   -0.6465380309276636,
   3.967705412417172,
   0.03235886311012896,
   3.108347780357041,
   -3.3625422282337434,
   0.004012971228262092,
   -2.7857080049459246,
   2.5976539714602467,
   -0.05267881253547342,
   1.7553038745292358,
   3.1645718090975947,
   0.09849927750115343,
   0.6309168298818281,
   -3.543955936277695,
   -0.011104837775400238,
   3.9719526196912684,
   -0.9002290867621937,
   0.08716092074840669,
   -4.769920436676645,
   -1.3273071911156626,
   -0.11126032242466495,
   -0.9092099623663019,
   6.004830175660711,
   0.01913078023192442,
   4.406589628546569,
   -4.938573816865572,
   -0.07157607379005133,
   5.787979426256241,
   -0.31630371399572466,
   -0.04700963415909916,
   -6.351621203684847,
   -0.38811330676312217,
   -0.6366041853019416,
   -4.6414190601455125,
   -3.160341532809756,
   -0.6403836375528572
  ],
  "name": "C5H5N5",
  "molecular_charge": 0.0,
  "molecular_multiplicity": 1,
  "masses": [
   12.0,
   12.0,
   12.0,
   12.0,
   12.0,
   14.00307400443,
   14.00307400443,
   14.00307400443,
   14.00307400443,
   14.00307400443,
   1.00782503223,
   1.00782503223,
   1.00782503223,
   1.00782503223,
   1.00782503223
  ],
  "real": [
   true,
   true,
   true,
   true,
   true,
   true,
   true,
   true,
   true,
   true,
   true,
   true,
   true,
   true,
   true
  ],
  "atom_labels": [
   "",
   "",
   "",
   "",
   "",
   "",
   "",
   "",
   "",
   "",
   "",
   "",
   "",
   "",
   ""
  ],
  "atomic_numbers": [
   6,
   6,
   6,
   6,
   6,
   7,
   7,
   7,
   7,
   7,
   1,
   1,
   1,
   1,
   1
  ],
  "mass_numbers": [
   12,
   12,
   12,
   12,
   12,
   14,
   14,
   14,
   14,
   14,
   1,
   1,
   1,
   1,
   1
  ],
  "fragments": [
   [
    0,
    1,
    2,
    3,
    4,
    5,
    6,
    7,
    8,
    9,
    10,
    11,
    12,
    13,
    14
   ]
  ],
  "fragment_charges": [
   0.0
  ],
  "fragment_multiplicities": [
   1
  ],
  "fix_com": false,
  "fix_orientation": false,
  "provenance": {
   "creator": "QCElemental",
   "version": "v0.19.0",
   "routine": "qcelemental.molparse.from_string"
  }
 },
 "driver": "energy",
 "model": {
  "method": "b97m-v",
  "basis": "pcseg-3"
 },
 "keywords": {},
 "protocols": {},
 "extras": {
  "qcvars": {
   "CURRENT DIPOLE X": 1.4651928322095271,
   "CURRENT DIPOLE Y": -1.904200794628476,
   "CURRENT DIPOLE Z": -0.895277622154933,
   "CURRENT ENERGY": -467.49693431784647,
   "CURRENT REFERENCE ENERGY": -467.49693431784647,
   "DFT FUNCTIONAL TOTAL ENERGY": -467.49693431784647,
   "DFT TOTAL ENERGY": -467.49693431784647,
   "DFT VV10 ENERGY": 0.2665578191526713,
   "DFT XC ENERGY": -63.88158925474486,
   "NUCLEAR REPULSION ENERGY": 501.22359390313767,
   "ONE-ELECTRON ENERGY": -1626.5028622245668,
   "PCM POLARIZATION ENERGY": 0.0,
   "PE ENERGY": 0.0,
   "SCF DIPOLE X": 1.4651928322095271,
   "SCF DIPOLE Y": -1.904200794628476,
   "SCF DIPOLE Z": -0.895277622154933,
   "SCF ITERATION ENERGY": -467.49693431784647,
   "SCF ITERATIONS": 10.0,
   "SCF TOTAL ENERGY": -467.49693431784647,
   "TWO-ELECTRON ENERGY": 721.3973654391748,
   "XC GRID RADIAL POINTS": 75.0,
   "XC GRID SPHERICAL POINTS": 302.0,
   "XC GRID TOTAL POINTS": 317513.0,
   "CURRENT DIPOLE": [
    0.5764512157053026,
    -0.7491702381285037,
    -0.3522293191311231
   ],
   "SCF DIPOLE": [
    0.5764512157053026,
    -0.7491702381285037,
    -0.3522293191311231
   ]
  }
 },
 "provenance": {
  "creator": "Psi4",
  "version": "1.4a2.dev923",
  "routine": "psi4.schema_runner.run_qcschema",
  "cpu": "Intel(R) Xeon(R) CPU E5-2620 v4 @ 2.10GHz",
  "nthreads": 16,
  "hostname": "z136",
  "memory": 800.0,
  "qcengine_version": "v0.16.0",
  "wall_time": 129.18027305603027,
  "username": "kraus"
 },
 "properties": {
  "calcinfo_nbasis": 765,
  "calcinfo_nmo": 765,
  "calcinfo_nalpha": 35,
  "calcinfo_nbeta": 35,
  "calcinfo_natom": 15,
  "nuclear_repulsion_energy": 501.22359390313767,
  "return_energy": -467.49693431784647,
  "scf_one_electron_energy": -1626.5028622245668,
  "scf_two_electron_energy": 721.3973654391748,
  "scf_vv10_energy": 0.2665578191526713,
  "scf_xc_energy": -63.88158925474486,
  "scf_dipole_moment": [
   0.5764512157053026,
   -0.7491702381285037,
   -0.3522293191311231
  ],
  "scf_total_energy": -467.49693431784647,
  "scf_iterations": 10
 },
 "wavefunction": null,
 "return_result": -467.49693431784647,
 "stdout": "\n    -----------------------------------------------------------------------\n          Psi4: An Open-Source Ab Initio Electronic Structure Package\n                               Psi4 1.4a2.dev923 \n\n                         Git: Rev {master} 5de566e \n\n\n    D. G. A. Smith, L. A. Burns, A. C. Simmonett, R. M. Parrish,\n    M. C. Schieber, R. Galvelis, P. Kraus, H. Kruse, R. Di Remigio,\n    A. Alenaizan, A. M. James, S. Lehtola, J. P. Misiewicz, M. Scheurer,\n    R. A. Shaw, J. B. Schriber, Y. Xie, Z. L. Glick, D. A. Sirianni,\n    J. S. O'Brien, J. M. Waldrop, A. Kumar, E. G. Hohenstein,\n    B. P. Pritchard, B. R. Brooks, H. F. Schaefer III, A. Yu. Sokolov,\n    K. Patkowski, A. E. DePrince III, U. Bozkaya, R. A. King,\n    F. A. Evangelista, J. M. Turney, T. D. Crawford, C. D. Sherrill,\n    J. Chem. Phys. 152(18) 184108 (2020). https://doi.org/10.1063/5.0006002\n\n                            Additional Code Authors\n    E. T. Seidl, C. L. Janssen, E. F. Valeev, M. L. Leininger,\n    J. F. Gonthier, R. M. Richard, H. R. McAlexander, M. Saitow, X. Wang,\n    P. Verma, and M. H. Lechner\n\n             Previous Authors, Complete List of Code Contributors,\n                       and Citations for Specific Modules\n    https://github.com/psi4/psi4/blob/master/codemeta.json\n    https://github.com/psi4/psi4/graphs/contributors\n    http://psicode.org/psi4manual/master/introduction.html#citing-psifour\n\n    -----------------------------------------------------------------------\n\n\n    Psi4 started on: Sunday, 25 April 2021 01:40PM\n\n    Process ID: 2665\n    Host:       z136\n    PSIDATADIR: /group/f97/kraus/miniconda3/envs/psi4-1.4a2.dev923/share/psi4\n    Memory:     745.1 GiB\n    Threads:    16\n    \n  ==> Input QCSchema <==\n\n--------------------------------------------------------------------------\n{'driver': 'energy',\n 'extras': {},\n 'id': None,\n 'keywords': {},\n 'model': {'basis': 'pcseg-3', 'method': 'b97m-v'},\n 'molecule': {'atom_labels': ['', '', '', '', '', '', '', '', '', '', '', '', '', '', ''],\n              'atomic_numbers': [6, 6, 6, 6, 6, 7, 7, 7, 7, 7, 1, 1, 1, 1, 1],\n              'fix_com': False,\n              'fix_orientation': False,\n              'fragment_charges': [0.0],\n              'fragment_multiplicities': [1],\n              'fragments': [[0, 1, 2, 3, 4, 5, 6, 7, 8, 9, 10, 11, 12, 13, 14]],\n              'geometry': [-2.600514844651058, 0.0578620588449254, -0.05834799091184806, -0.1816654040650374,\n                           -1.0514071767988198, 0.03991776761195798, 1.8611285375548747, 0.6342285271095629,\n                           0.08527119462294586, -0.6465380309276632, 3.967705412417172, 0.03235886311012681,\n                           3.1083477803570414, -3.3625422282337434, 0.004012971228259943, -2.785708004945924,\n                           2.5976539714602467, -0.05267881253547557, 1.7553038745292362, 3.1645718090975947,\n                           0.09849927750115128, 0.6309168298818285, -3.543955936277695, -0.011104837775402387,\n                           3.971952619691269, -0.9002290867621936, 0.08716092074840454, -4.769920436676644,\n                           -1.3273071911156626, -0.1112603224246671, -0.9092099623663015, 6.004830175660711,\n                           0.019130780231922273, 4.40658962854657, -4.938573816865572, -0.07157607379005348,\n                           5.787979426256242, -0.31630371399572454, -0.04700963415910131, -6.3516212036848465,\n                           -0.38811330676312206, -0.6366041853019437, -4.641419060145512, -3.160341532809756,\n                           -0.6403836375528593],\n              'mass_numbers': [12, 12, 12, 12, 12, 14, 14, 14, 14, 14, 1, 1, 1, 1, 1],\n              'masses': [12.0, 12.0, 12.0, 12.0, 12.0, 14.00307400443, 14.00307400443, 14.00307400443, 14.00307400443,\n                         14.00307400443, 1.00782503223, 1.00782503223, 1.00782503223, 1.00782503223, 1.00782503223],\n              'molecular_charge': 0.0,\n              'molecular_multiplicity': 1,\n              'name': 'C5H5N5',\n              'provenance': {'creator': 'QCElemental',\n                             'routine': 'qcelemental.molparse.from_string',\n                             'version': 'v0.19.0'},\n              'real': [True, True, True, True, True, True, True, True, True, True, True, True, True, True, True],\n              'symbols': ['C', 'C', 'C', 'C', 'C', 'N', 'N', 'N', 'N', 'N', 'H', 'H', 'H', 'H', 'H'],\n              'validated': True},\n 'protocols': {},\n 'provenance': {'creator': 'QCElemental', 'routine': 'qcelemental.models.results', 'version': 'v0.16.0'},\n 'schema_name': 'qcschema_input',\n 'schema_version': 1}\n--------------------------------------------------------------------------\n\nScratch directory: /scratch/f97/kraus/scratch/tmppdwkcdm4_psi_scratch/\n\n*** tstart() called on z136\n*** at Sun Apr 25 13:40:38 2021\n\n   => Loading Basis Set <=\n\n    Name: PCSEG-3\n    Role: ORBITAL\n    Keyword: BASIS\n    atoms 1-5   entry C          line   194 file /group/f97/kraus/miniconda3/envs/psi4-1.4a2.dev923/share/psi4/basis/pcseg-3.gbs \n    atoms 6-10  entry N          line   243 file /group/f97/kraus/miniconda3/envs/psi4-1.4a2.dev923/share/psi4/basis/pcseg-3.gbs \n    atoms 11-15 entry H          line    13 file /group/f97/kraus/miniconda3/envs/psi4-1.4a2.dev923/share/psi4/basis/pcseg-3.gbs \n\n\n         ---------------------------------------------------------\n                                   SCF\n               by Justin Turney, Rob Parrish, Andy Simmonett\n                          and Daniel G. A. Smith\n                              RKS Reference\n                       16 Threads, 762939 MiB Core\n         ---------------------------------------------------------\n\n  ==> Geometry <==\n\n    Molecular point group: c1\n    Full point group: C1\n\n    Geometry (in Bohr), charge = 0, multiplicity = 1:\n\n       Center              X                  Y                   Z               Mass       \n    ------------   -----------------  -----------------  -----------------  -----------------\n         C           -2.600514844651     0.057862058845    -0.058347990912    12.000000000000\n         C           -0.181665404065    -1.051407176799     0.039917767612    12.000000000000\n         C            1.861128537555     0.634228527110     0.085271194623    12.000000000000\n         C           -0.646538030928     3.967705412417     0.032358863110    12.000000000000\n         C            3.108347780357    -3.362542228234     0.004012971228    12.000000000000\n         N           -2.785708004946     2.597653971460    -0.052678812535    14.003074004430\n         N            1.755303874529     3.164571809098     0.098499277501    14.003074004430\n         N            0.630916829882    -3.543955936278    -0.011104837775    14.003074004430\n         N            3.971952619691    -0.900229086762     0.087160920748    14.003074004430\n         N           -4.769920436677    -1.327307191116    -0.111260322425    14.003074004430\n         H           -0.909209962366     6.004830175661     0.019130780232     1.007825032230\n         H            4.406589628547    -4.938573816866    -0.071576073790     1.007825032230\n         H            5.787979426256    -0.316303713996    -0.047009634159     1.007825032230\n         H           -6.351621203685    -0.388113306763    -0.636604185302     1.007825032230\n         H           -4.641419060146    -3.160341532810    -0.640383637553     1.007825032230\n\n  Running in c1 symmetry.\n\n  Rotational constants: A =      0.07881  B =      0.05206  C =      0.03137 [cm^-1]\n  Rotational constants: A =   2362.65971  B =   1560.84141  C =    940.48329 [MHz]\n  Nuclear repulsion =  501.223593903137669\n\n  Charge       = 0\n  Multiplicity = 1\n  Electrons    = 70\n  Nalpha       = 35\n  Nbeta        = 35\n\n  ==> Algorithm <==\n\n  SCF Algorithm Type is DF.\n  DIIS enabled.\n  MOM disabled.\n  Fractional occupation disabled.\n  Guess Type is SAD.\n  Energy threshold   = 1.00e-06\n  Density threshold  = 1.00e-06\n  Integral threshold = 0.00e+00\n\n  ==> Primary Basis <==\n\n  Basis Set: PCSEG-3\n    Blend: PCSEG-3\n    Number of shells: 215\n    Number of basis function: 765\n    Number of Cartesian functions: 950\n    Spherical Harmonics?: true\n    Max angular momentum: 4\n\n  ==> DFT Potential <==\n\n   => Composite Functional: B97M-V <= \n\n    B97M-V GGA Exchange-Correlation Functional\n\n    N. Mardirossian and M. Head-Gordon, J. Chem. Phys. 142, 074111 (2015)\n\n    Deriv               =              1\n    GGA                 =           TRUE\n    Meta                =           TRUE\n\n    Exchange Hybrid     =          FALSE\n    MP2 Hybrid          =          FALSE\n\n   => Exchange-Correlation Functionals <=\n\n    1.0000   B97M-V exchange-correlation functional\n\n   => LibXC Density Thresholds  <==\n\n    XC_MGGA_XC_B97M_V:  1.00E-23 \n\n   => VV10 Non-Local Parameters <=\n\n    VV10 B              =     6.0000E+00\n    VV10 C              =     1.0000E-02\n\n   => Molecular Quadrature <=\n\n    Radial Scheme          =       TREUTLER\n    Pruning Scheme         =           NONE\n    Nuclear Scheme         =       TREUTLER\n\n    BS radius alpha        =              1\n    Pruning alpha          =              1\n    Radial Points          =             75\n    Spherical Points       =            302\n    Total Points           =         317513\n    Total Blocks           =           2382\n    Max Points             =            256\n    Max Functions          =            642\n    Weights Tolerance      =       1.00E-15\n\n   => Loading Basis Set <=\n\n    Name: (PCSEG-3 AUX)\n    Role: JKFIT\n    Keyword: DF_BASIS_SCF\n    atoms 1-5   entry C          line   198 file /group/f97/kraus/miniconda3/envs/psi4-1.4a2.dev923/share/psi4/basis/def2-universal-jkfit.gbs \n    atoms 6-10  entry N          line   258 file /group/f97/kraus/miniconda3/envs/psi4-1.4a2.dev923/share/psi4/basis/def2-universal-jkfit.gbs \n    atoms 11-15 entry H          line    18 file /group/f97/kraus/miniconda3/envs/psi4-1.4a2.dev923/share/psi4/basis/def2-universal-jkfit.gbs \n\n  ==> Integral Setup <==\n\n  DFHelper Memory: AOs need 3.308 GiB; user supplied 548.912 GiB. Using in-core AOs.\n\n  ==> MemDFJK: Density-Fitted J/K Matrices <==\n\n    J tasked:                   Yes\n    K tasked:                    No\n    wK tasked:                   No\n    OpenMP threads:              16\n    Memory [MiB]:            562086\n    Algorithm:                 Core\n    Schwarz Cutoff:           1E-12\n    Mask sparsity (%):      15.9474\n    Fitting Condition:        1E-10\n\n   => Auxiliary Basis Set <=\n\n  Basis Set: (PCSEG-3 AUX)\n    Blend: DEF2-UNIVERSAL-JKFIT\n    Number of shells: 280\n    Number of basis function: 850\n    Number of Cartesian functions: 1010\n    Spherical Harmonics?: true\n    Max angular momentum: 4\n\n  Cached 100.0% of DFT collocation blocks in 9.881 [GiB].\n\n  Minimum eigenvalue in the overlap matrix is 1.5481066104E-05.\n  Reciprocal condition number of the overlap matrix is 1.1949153290E-06.\n    Using symmetric orthogonalization.\n\n  ==> Pre-Iterations <==\n\n  SCF Guess: Superposition of Atomic Densities via on-the-fly atomic UHF (no occupation information).\n\n   -------------------------\n    Irrep   Nso     Nmo    \n   -------------------------\n     A        765     765 \n   -------------------------\n    Total     765     765\n   -------------------------\n\n  ==> Iterations <==\n\n                           Total Energy        Delta E     RMS |[F,P]|\n\n   @DF-RKS iter SAD:  -467.14186140811051   -4.67142e+02   0.00000e+00 \n   @DF-RKS iter   1:  -466.84837471410867    2.93487e-01   1.52955e-03 DIIS\n   @DF-RKS iter   2:  -465.91153751880762    9.36837e-01   2.26944e-03 DIIS\n   @DF-RKS iter   3:  -467.42845514019052   -1.51692e+00   4.70571e-04 DIIS\n   @DF-RKS iter   4:  -467.46547383572079   -3.70187e-02   3.36812e-04 DIIS\n   @DF-RKS iter   5:  -467.49415362906495   -2.86798e-02   9.80707e-05 DIIS\n   @DF-RKS iter   6:  -467.49641176140500   -2.25813e-03   4.16404e-05 DIIS\n   @DF-RKS iter   7:  -467.49688235973122   -4.70598e-04   1.33771e-05 DIIS\n   @DF-RKS iter   8:  -467.49692813793553   -4.57782e-05   4.83665e-06 DIIS\n   @DF-RKS iter   9:  -467.49693372673727   -5.58880e-06   1.59013e-06 DIIS\n   @DF-RKS iter  10:  -467.49693431784647   -5.91109e-07   6.04050e-07 DIIS\n  Energy and wave function converged.\n\n\n  ==> Post-Iterations <==\n\n    Orbital Energies [Eh]\n    ---------------------\n\n    Doubly Occupied:                                                      \n\n       1A    -14.407118     2A    -14.362810     3A    -14.341981  \n       4A    -14.334242     5A    -14.328908     6A    -10.271700  \n       7A    -10.261082     8A    -10.257117     9A    -10.243393  \n      10A    -10.212025    11A     -1.020890    12A     -0.963480  \n      13A     -0.922746    14A     -0.877993    15A     -0.847357  \n      16A     -0.748242    17A     -0.645188    18A     -0.628853  \n      19A     -0.607422    20A     -0.554113    21A     -0.522915  \n      22A     -0.489943    23A     -0.473105    24A     -0.440836  \n      25A     -0.433482    26A     -0.417635    27A     -0.394417  \n      28A     -0.378884    29A     -0.335999    30A     -0.303093  \n      31A     -0.279181    32A     -0.267523    33A     -0.252539  \n      34A     -0.233147    35A     -0.210662  \n\n    Virtual:                                                              \n\n      36A     -0.054297    37A     -0.027701    38A     -0.015793  \n      39A     -0.004139    40A     -0.000040    41A      0.021367  \n      42A      0.029205    43A      0.033775    44A      0.047688  \n      45A      0.051367    46A      0.070611    47A      0.078842  \n      48A      0.082342    49A      0.084028    50A      0.096547  \n      51A      0.105601    52A      0.119507    53A      0.124715  \n      54A      0.132449    55A      0.137757    56A      0.143273  \n      57A      0.149734    58A      0.154890    59A      0.166460  \n      60A      0.171781    61A      0.174626    62A      0.183272  \n      63A      0.187185    64A      0.193301    65A      0.197678  \n      66A      0.211177    67A      0.213501    68A      0.220795  \n      69A      0.227763    70A      0.234442    71A      0.236917  \n      72A      0.239220    73A      0.243713    74A      0.247846  \n      75A      0.262879    76A      0.269826    77A      0.273955  \n      78A      0.281336    79A      0.282493    80A      0.292314  \n      81A      0.303983    82A      0.310366    83A      0.314544  \n      84A      0.321637    85A      0.341080    86A      0.350164  \n      87A      0.356988    88A      0.361119    89A      0.381512  \n      90A      0.395552    91A      0.402759    92A      0.405933  \n      93A      0.417550    94A      0.423341    95A      0.428345  \n      96A      0.449097    97A      0.469117    98A      0.473907  \n      99A      0.477038   100A      0.483295   101A      0.494236  \n     102A      0.502202   103A      0.507363   104A      0.520897  \n     105A      0.530654   106A      0.533779   107A      0.544410  \n     108A      0.551870   109A      0.558120   110A      0.561086  \n     111A      0.566452   112A      0.574966   113A      0.579206  \n     114A      0.582780   115A      0.590448   116A      0.591859  \n     117A      0.598784   118A      0.605221   119A      0.619872  \n     120A      0.631973   121A      0.641983   122A      0.650869  \n     123A      0.652752   124A      0.665680   125A      0.678753  \n     126A      0.688007   127A      0.695503   128A      0.704684  \n     129A      0.721371   130A      0.729297   131A      0.742410  \n     132A      0.745187   133A      0.751252   134A      0.765534  \n     135A      0.777635   136A      0.787264   137A      0.793005  \n     138A      0.803831   139A      0.810260   140A      0.812015  \n     141A      0.833566   142A      0.837244   143A      0.851974  \n     144A      0.868395   145A      0.872557   146A      0.873612  \n     147A      0.892545   148A      0.893295   149A      0.899799  \n     150A      0.902533   151A      0.911511   152A      0.930992  \n     153A      0.942264   154A      0.949009   155A      0.961659  \n     156A      0.963293   157A      0.988523   158A      0.990611  \n     159A      0.992499   160A      1.007678   161A      1.026436  \n     162A      1.038332   163A      1.051879   164A      1.064465  \n     165A      1.069209   166A      1.090633   167A      1.100226  \n     168A      1.124527   169A      1.135096   170A      1.146688  \n     171A      1.155181   172A      1.167893   173A      1.177276  \n     174A      1.190615   175A      1.202807   176A      1.224555  \n     177A      1.235217   178A      1.247597   179A      1.259428  \n     180A      1.285532   181A      1.297227   182A      1.307333  \n     183A      1.321771   184A      1.329393   185A      1.352795  \n     186A      1.364604   187A      1.373669   188A      1.387335  \n     189A      1.410204   190A      1.420752   191A      1.444465  \n     192A      1.448444   193A      1.466391   194A      1.487050  \n     195A      1.505538   196A      1.517888   197A      1.537274  \n     198A      1.541235   199A      1.566985   200A      1.587251  \n     201A      1.591519   202A      1.612125   203A      1.617976  \n     204A      1.648616   205A      1.667470   206A      1.690004  \n     207A      1.695745   208A      1.710919   209A      1.715518  \n     210A      1.733348   211A      1.740570   212A      1.756413  \n     213A      1.767396   214A      1.786468   215A      1.805229  \n     216A      1.824655   217A      1.836847   218A      1.839504  \n     219A      1.846779   220A      1.852991   221A      1.864507  \n     222A      1.873190   223A      1.884508   224A      1.891307  \n     225A      1.902099   226A      1.911910   227A      1.939051  \n     228A      1.947740   229A      1.960452   230A      1.963956  \n     231A      1.980058   232A      1.990455   233A      2.003868  \n     234A      2.019478   235A      2.027760   236A      2.037237  \n     237A      2.048834   238A      2.060496   239A      2.073222  \n     240A      2.093779   241A      2.100827   242A      2.110905  \n     243A      2.130997   244A      2.137521   245A      2.148908  \n     246A      2.153612   247A      2.162458   248A      2.182350  \n     249A      2.191584   250A      2.204086   251A      2.219126  \n     252A      2.231771   253A      2.258468   254A      2.261865  \n     255A      2.279034   256A      2.281496   257A      2.296639  \n     258A      2.302022   259A      2.312492   260A      2.325130  \n     261A      2.328659   262A      2.350012   263A      2.356489  \n     264A      2.381784   265A      2.391808   266A      2.394296  \n     267A      2.413536   268A      2.426813   269A      2.436631  \n     270A      2.442201   271A      2.456542   272A      2.473943  \n     273A      2.486554   274A      2.495418   275A      2.502198  \n     276A      2.539895   277A      2.541044   278A      2.563359  \n     279A      2.571255   280A      2.579248   281A      2.593224  \n     282A      2.608537   283A      2.631677   284A      2.637439  \n     285A      2.659235   286A      2.661773   287A      2.681311  \n     288A      2.693067   289A      2.704523   290A      2.706460  \n     291A      2.725983   292A      2.736474   293A      2.748992  \n     294A      2.772111   295A      2.778102   296A      2.809657  \n     297A      2.812190   298A      2.830549   299A      2.844786  \n     300A      2.863738   301A      2.867652   302A      2.879724  \n     303A      2.892389   304A      2.905574   305A      2.935716  \n     306A      2.959797   307A      2.965768   308A      2.978580  \n     309A      2.997452   310A      3.027269   311A      3.040193  \n     312A      3.044540   313A      3.067145   314A      3.081942  \n     315A      3.111185   316A      3.120182   317A      3.143353  \n     318A      3.158209   319A      3.193832   320A      3.198851  \n     321A      3.225458   322A      3.234455   323A      3.254059  \n     324A      3.261863   325A      3.281634   326A      3.296192  \n     327A      3.317962   328A      3.329034   329A      3.366913  \n     330A      3.386979   331A      3.394062   332A      3.402487  \n     333A      3.416847   334A      3.434538   335A      3.478879  \n     336A      3.500996   337A      3.507286   338A      3.544512  \n     339A      3.575573   340A      3.595447   341A      3.613544  \n     342A      3.633184   343A      3.635004   344A      3.667832  \n     345A      3.690317   346A      3.705614   347A      3.719004  \n     348A      3.733997   349A      3.744475   350A      3.750848  \n     351A      3.772192   352A      3.791590   353A      3.822774  \n     354A      3.835555   355A      3.852480   356A      3.874123  \n     357A      3.890356   358A      3.917182   359A      3.920148  \n     360A      3.944993   361A      3.960833   362A      3.969950  \n     363A      3.998421   364A      4.023220   365A      4.063509  \n     366A      4.074866   367A      4.098785   368A      4.144206  \n     369A      4.171040   370A      4.207449   371A      4.236882  \n     372A      4.277524   373A      4.280012   374A      4.298086  \n     375A      4.346253   376A      4.364799   377A      4.396150  \n     378A      4.408300   379A      4.470645   380A      4.488063  \n     381A      4.519864   382A      4.543316   383A      4.579613  \n     384A      4.636898   385A      4.638346   386A      4.661612  \n     387A      4.688478   388A      4.745630   389A      4.762936  \n     390A      4.774718   391A      4.792574   392A      4.813888  \n     393A      4.834247   394A      4.867592   395A      4.886954  \n     396A      4.897923   397A      4.916748   398A      4.926656  \n     399A      4.950044   400A      4.969516   401A      4.995743  \n     402A      5.004175   403A      5.020476   404A      5.071001  \n     405A      5.098348   406A      5.130574   407A      5.161187  \n     408A      5.163817   409A      5.220913   410A      5.235839  \n     411A      5.250164   412A      5.284950   413A      5.297296  \n     414A      5.326141   415A      5.347454   416A      5.365178  \n     417A      5.379070   418A      5.389036   419A      5.399987  \n     420A      5.417500   421A      5.420379   422A      5.473565  \n     423A      5.498898   424A      5.535701   425A      5.565557  \n     426A      5.574646   427A      5.598711   428A      5.658144  \n     429A      5.682804   430A      5.712320   431A      5.754566  \n     432A      5.768753   433A      5.802910   434A      5.825424  \n     435A      5.923769   436A      5.934667   437A      5.978900  \n     438A      6.038484   439A      6.059795   440A      6.072247  \n     441A      6.097112   442A      6.124877   443A      6.140832  \n     444A      6.152956   445A      6.170168   446A      6.173359  \n     447A      6.184505   448A      6.202357   449A      6.220755  \n     450A      6.231246   451A      6.251107   452A      6.273414  \n     453A      6.288107   454A      6.323249   455A      6.339424  \n     456A      6.365345   457A      6.387668   458A      6.400615  \n     459A      6.438672   460A      6.443917   461A      6.466215  \n     462A      6.514459   463A      6.538398   464A      6.559324  \n     465A      6.577311   466A      6.602345   467A      6.608674  \n     468A      6.620619   469A      6.673203   470A      6.698627  \n     471A      6.716257   472A      6.724405   473A      6.774307  \n     474A      6.786103   475A      6.786611   476A      6.806822  \n     477A      6.832047   478A      6.865450   479A      6.896911  \n     480A      6.920551   481A      6.941084   482A      6.957964  \n     483A      6.995744   484A      7.022566   485A      7.080741  \n     486A      7.098422   487A      7.125001   488A      7.136891  \n     489A      7.167361   490A      7.180596   491A      7.199446  \n     492A      7.247595   493A      7.293669   494A      7.322311  \n     495A      7.329922   496A      7.386490   497A      7.403885  \n     498A      7.430259   499A      7.455325   500A      7.521210  \n     501A      7.541110   502A      7.566601   503A      7.596448  \n     504A      7.621911   505A      7.665448   506A      7.669000  \n     507A      7.688872   508A      7.693287   509A      7.704427  \n     510A      7.711528   511A      7.732891   512A      7.763828  \n     513A      7.782027   514A      7.812517   515A      7.833225  \n     516A      7.850218   517A      7.860239   518A      7.875999  \n     519A      7.905035   520A      7.908741   521A      7.919197  \n     522A      7.926879   523A      7.951447   524A      7.993062  \n     525A      8.000608   526A      8.022777   527A      8.035231  \n     528A      8.052967   529A      8.057977   530A      8.067591  \n     531A      8.087115   532A      8.099150   533A      8.109248  \n     534A      8.134084   535A      8.172066   536A      8.185266  \n     537A      8.198988   538A      8.202670   539A      8.218863  \n     540A      8.230065   541A      8.238856   542A      8.256942  \n     543A      8.276836   544A      8.287401   545A      8.301578  \n     546A      8.329481   547A      8.350137   548A      8.354869  \n     549A      8.371598   550A      8.379811   551A      8.397093  \n     552A      8.422226   553A      8.475926   554A      8.487142  \n     555A      8.502115   556A      8.505939   557A      8.512417  \n     558A      8.568138   559A      8.581289   560A      8.609815  \n     561A      8.613894   562A      8.635584   563A      8.659493  \n     564A      8.676566   565A      8.695820   566A      8.701514  \n     567A      8.719285   568A      8.735146   569A      8.798314  \n     570A      8.829668   571A      8.853454   572A      8.877335  \n     573A      8.912560   574A      8.947202   575A      8.975443  \n     576A      8.991616   577A      9.018903   578A      9.040580  \n     579A      9.048863   580A      9.058707   581A      9.072935  \n     582A      9.083864   583A      9.105520   584A      9.124428  \n     585A      9.151090   586A      9.165516   587A      9.191804  \n     588A      9.219190   589A      9.221975   590A      9.227434  \n     591A      9.252410   592A      9.264921   593A      9.275150  \n     594A      9.300475   595A      9.309176   596A      9.321503  \n     597A      9.338700   598A      9.346482   599A      9.351734  \n     600A      9.361524   601A      9.387506   602A      9.394662  \n     603A      9.399094   604A      9.422441   605A      9.427767  \n     606A      9.450569   607A      9.471597   608A      9.506004  \n     609A      9.537180   610A      9.545015   611A      9.611681  \n     612A      9.636305   613A      9.644821   614A      9.668077  \n     615A      9.703242   616A      9.738263   617A      9.747900  \n     618A      9.777272   619A      9.791426   620A      9.806989  \n     621A      9.830685   622A      9.844716   623A      9.875743  \n     624A      9.907327   625A      9.910075   626A      9.930480  \n     627A      9.956798   628A      9.984501   629A      9.991693  \n     630A     10.028429   631A     10.049726   632A     10.086505  \n     633A     10.107532   634A     10.124587   635A     10.143944  \n     636A     10.164590   637A     10.182100   638A     10.209032  \n     639A     10.216860   640A     10.234323   641A     10.285334  \n     642A     10.305048   643A     10.309672   644A     10.326134  \n     645A     10.348032   646A     10.370781   647A     10.376480  \n     648A     10.403893   649A     10.422308   650A     10.436164  \n     651A     10.440700   652A     10.467218   653A     10.490105  \n     654A     10.505939   655A     10.591054   656A     10.603542  \n     657A     10.671838   658A     10.745687   659A     10.798637  \n     660A     10.853105   661A     10.881394   662A     10.978486  \n     663A     11.030403   664A     11.073136   665A     11.089751  \n     666A     11.192709   667A     11.377862   668A     11.402850  \n     669A     11.434235   670A     11.453974   671A     11.482780  \n     672A     11.498993   673A     11.738948   674A     11.826783  \n     675A     11.841478   676A     11.925640   677A     11.976390  \n     678A     12.043183   679A     12.069535   680A     12.094389  \n     681A     12.122524   682A     12.158802   683A     12.567785  \n     684A     12.590770   685A     12.949645   686A     12.988892  \n     687A     13.112935   688A     13.289705   689A     13.590935  \n     690A     13.645477   691A     16.698505   692A     16.753671  \n     693A     16.768910   694A     16.816375   695A     16.817195  \n     696A     16.855638   697A     16.874215   698A     16.910589  \n     699A     16.945228   700A     16.966752   701A     16.986570  \n     702A     17.019447   703A     17.096566   704A     17.116798  \n     705A     17.266211   706A     17.275803   707A     17.442364  \n     708A     17.467509   709A     17.523061   710A     17.587642  \n     711A     17.625312   712A     17.642350   713A     17.722891  \n     714A     17.871286   715A     17.979895   716A     19.383656  \n     717A     19.425082   718A     19.465056   719A     19.475991  \n     720A     19.530759   721A     19.531567   722A     19.541172  \n     723A     19.554985   724A     19.566077   725A     19.614070  \n     726A     19.626993   727A     19.641561   728A     19.655142  \n     729A     19.661079   730A     19.678772   731A     19.697532  \n     732A     19.751001   733A     19.772000   734A     19.802176  \n     735A     19.929802   736A     19.985836   737A     20.014349  \n     738A     20.078389   739A     20.087052   740A     20.150420  \n     741A     20.186331   742A     20.225461   743A     20.269123  \n     744A     20.330261   745A     20.391922   746A     20.402937  \n     747A     20.498430   748A     20.513177   749A     20.583297  \n     750A     20.630429   751A     20.738779   752A     20.804418  \n     753A     21.299698   754A     21.552781   755A     21.716785  \n     756A     25.796232   757A     26.350550   758A     26.883073  \n     759A     27.110949   760A     27.168070   761A     34.499401  \n     762A     34.543570   763A     34.719480   764A     36.425748  \n     765A     36.493580  \n\n    Final Occupation by Irrep:\n              A \n    DOCC [    35 ]\n\n  @DF-RKS Final Energy:  -467.49693431784647\n\n   => Energetics <=\n\n    Nuclear Repulsion Energy =            501.2235939031376688\n    One-Electron Energy =               -1626.5028622245667975\n    Two-Electron Energy =                 721.3973654391747914\n    DFT Exchange-Correlation Energy =     -63.8815892547448598\n    Empirical Dispersion Energy =           0.0000000000000000\n    VV10 Nonlocal Energy =                  0.2665578191526713\n    Total Energy =                       -467.4969343178464669\n\nComputation Completed\n\n\nProperties will be evaluated at   0.000000,   0.000000,   0.000000 [a0]\n\nProperties computed using the SCF density matrix\n\n  Nuclear Dipole Moment: [e a0]\n     X:    -0.8453      Y:    -1.3883      Z:    -0.6829\n\n  Electronic Dipole Moment: [e a0]\n     X:     1.4218      Y:     0.6391      Z:     0.3306\n\n  Dipole Moment: [e a0]\n     X:     0.5765      Y:    -0.7492      Z:    -0.3522     Total:     1.0088\n\n  Dipole Moment: [D]\n     X:     1.4652      Y:    -1.9042      Z:    -0.8953     Total:     2.5640\n\n\n*** tstop() called on z136 at Sun Apr 25 13:42:41 2021\nModule time:\n\tuser time   =    1603.75 seconds =      26.73 minutes\n\tsystem time =      30.79 seconds =       0.51 minutes\n\ttotal time  =        123 seconds =       2.05 minutes\nTotal time:\n\tuser time   =    1603.75 seconds =      26.73 minutes\n\tsystem time =      30.79 seconds =       0.51 minutes\n\ttotal time  =        123 seconds =       2.05 minutes\n\n    Psi4 stopped on: Sunday, 25 April 2021 01:42PM\n    Psi4 wall time for execution: 0:02:03.15\n\n*** Psi4 exiting successfully. Buy a developer a beer!\n",
 "stderr": null,
 "success": true,
 "error": null,
 "tag": "b97m-v pcseg-3 c3a_a"
}