{
 "id": null,
 "schema_name": "qcschema_output",
 "schema_version": 1,
 "molecule": {
  "validated": true,
  "symbols": [
   "C",
   "C",
   "C",
   "C",
   "C",
   "C",
   "C",
   "C",
   "C",
   "C",
   "C",
   "N",
   "N",
   "O",
   "O",
   "H",
   "H",
   "H",
   "H",
   "H",
   "H",
   "H",
   "H",
   "H",
   "H",
   "H",
   "H",
   "H",
   "H"
  ],
  "geometry": [
   3.5554869353951855,
   -3.23644091877854,
   0.8987056250420546,
   1.9118674021602333,
   -2.1200908793427033,
   -0.8500015780296057,
   -0.0895377578599026,
   -3.5708411847611807,
   -1.8005413780393948,
   -0.4747640977128567,
   -6.044851730949312,
   -0.9774258106692284,
   1.1492816523146046,
   -7.1168631263035325,
   0.8023390412743362,
   3.1792594713516618,
   -5.710740593063869,
   1.7242154754131813,
   2.245761221541251,
   0.606135743631911,
   -1.6208019673426013,
   0.5894710746351033,
   2.4603425768356337,
   -0.03477939668547637,
   1.1230805995851318,
   5.183783743501322,
   -0.9055878720099462,
   -3.646733649982087,
   0.9813503144721908,
   1.3272709438562589,
   -6.402859519713694,
   0.7233157709454254,
   0.5788449118686887,
   2.9003529027692156,
   6.4266093730618,
   0.4517494915748972,
   -2.1008904362044465,
   2.0184924833594606,
   -0.4250720922807827,
   -2.8823526603172738,
   0.225894501297913,
   3.416123180331954,
   0.03665248361979522,
   6.059902349238332,
   -2.7759424149557046,
   -6.847648137314955,
   -1.289714984198526,
   0.40530569258952154,
   3.2907967764545596,
   8.236747793019846,
   -0.030142008773602413,
   -7.5839118919590796,
   1.5008927181443117,
   2.0856010304673585,
   -6.862550517540313,
   1.6648434670629062,
   -1.2028077764742098,
   -2.8259896888993694,
   2.8377152149111846,
   -2.004539203008694,
   0.9944960751044792,
   2.2142076387208767,
   1.9726955636496297,
   1.765243552085961,
   0.8727024006151176,
   -3.618098862765987,
   4.218451993085055,
   1.1801306056091,
   -1.3713845749479217,
   -1.3569543934909605,
   -2.743813884311314,
   -3.1906276953784207,
   5.141386673854155,
   -2.150908532996669,
   1.6280132978183732,
   -2.0421180639765826,
   -7.138797177441721,
   -1.729223114064617,
   4.456661419829641,
   -6.532635397356992,
   3.1048512723987964,
   0.8413810157892601,
   -9.03585732999245,
   1.4615057494520332,
   3.4748976750489122,
   5.761297275524113,
   2.171277433543366
  ],
  "name": "C11H14N2O2",
  "molecular_charge": 0.0,
  "molecular_multiplicity": 1,
  "masses": [
   12.0,
   12.0,
   12.0,
   12.0,
   12.0,
   12.0,
   12.0,
   12.0,
   12.0,
   12.0,
   12.0,
   14.00307400443,
   14.00307400443,
   15.99491461957,
   15.99491461957,
   1.00782503223,
   1.00782503223,
   1.00782503223,
   1.00782503223,
   1.00782503223,
   1.00782503223,
   1.00782503223,
   1.00782503223,
   1.00782503223,
   1.00782503223,
   1.00782503223,
   1.00782503223,
   1.00782503223,
   1.00782503223
  ],
  "real": [
   true,
   true,
   true,
   true,
   true,
   true,
   true,
   true,
   true,
   true,
   true,
   true,
   true,
   true,
   true,
   true,
   true,
   true,
   true,
   true,
   true,
   true,
   true,
   true,
   true,
   true,
   true,
   true,
   true
  ],
  "atom_labels": [
   "",
   "",
   "",
   "",
   "",
   "",
   "",
   "",
   "",
   "",
   "",
   "",
   "",
   "",
   "",
   "",
   "",
   "",
   "",
   "",
   "",
   "",
   "",
   "",
   "",
   "",
   "",
   "",
   ""
  ],
  "atomic_numbers": [
   6,
   6,
   6,
   6,
   6,
   6,
   6,
   6,
   6,
   6,
   6,
   7,
   7,
   8,
   8,
   1,
   1,
   1,
   1,
   1,
   1,
   1,
   1,
   1,
   1,
   1,
   1,
   1,
   1
  ],
  "mass_numbers": [
   12,
   12,
   12,
   12,
   12,
   12,
   12,
   12,
   12,
   12,
   12,
   14,
   14,
   16,
   16,
   1,
   1,
   1,
   1,
   1,
   1,
   1,
   1,
   1,
   1,
   1,
   1,
   1,
   1
  ],
  "fragments": [
   [
    0,
    1,
    2,
    3,
    4,
    5,
    6,
    7,
    8,
    9,
    10,
    11,
    12,
    13,
    14,
    15,
    16,
    17,
    18,
    19,
    20,
    21,
    22,
    23,
    24,
    25,
    26,
    27,
    28
   ]
  ],
  "fragment_charges": [
   0.0
  ],
  "fragment_multiplicities": [
   1
  ],
  "fix_com": false,
  "fix_orientation": false,
  "provenance": {
   "creator": "QCElemental",
   "version": "v0.19.0",
   "routine": "qcelemental.molparse.from_string"
  }
 },
 "driver": "energy",
 "model": {
  "method": "b3lyp-d3bj",
  "basis": "def2-svpd"
 },
 "keywords": {
  "guess": "SAP"
 },
 "protocols": {},
 "extras": {
  "qcvars": {
   "2-BODY DISPERSION CORRECTION ENERGY": -0.05568337,
   "B3LYP-D3(BJ) DISPERSION CORRECTION ENERGY": -0.05568337,
   "CURRENT DIPOLE X": 1.7897465852328571,
   "CURRENT DIPOLE Y": 1.1829470222613827,
   "CURRENT DIPOLE Z": -0.1841572491768156,
   "CURRENT ENERGY": -687.2033539646776,
   "CURRENT REFERENCE ENERGY": -687.2033539646776,
   "DFT FUNCTIONAL TOTAL ENERGY": -687.1476705946777,
   "DFT TOTAL ENERGY": -687.2033539646777,
   "DFT VV10 ENERGY": 0.0,
   "DFT XC ENERGY": -77.50276804253377,
   "DISPERSION CORRECTION ENERGY": -0.05568337,
   "NUCLEAR REPULSION ENERGY": 980.0399976067333,
   "ONE-ELECTRON ENERGY": -2877.650454291848,
   "PCM POLARIZATION ENERGY": 0.0,
   "PE ENERGY": 0.0,
   "SCF DIPOLE X": 1.7897465852328571,
   "SCF DIPOLE Y": 1.1829470222613827,
   "SCF DIPOLE Z": -0.1841572491768156,
   "SCF ITERATION ENERGY": -687.2033539646776,
   "SCF ITERATIONS": 15.0,
   "SCF TOTAL ENERGY": -687.2033539646776,
   "TWO-ELECTRON ENERGY": 1287.9655541329705,
   "XC GRID RADIAL POINTS": 75.0,
   "XC GRID SPHERICAL POINTS": 302.0,
   "XC GRID TOTAL POINTS": 603992.0,
   "CURRENT DIPOLE": [
    0.7041404873009629,
    0.4654071696960269,
    -0.07245303678481196
   ],
   "SCF DIPOLE": [
    0.7041404873009629,
    0.4654071696960269,
    -0.07245303678481196
   ]
  }
 },
 "provenance": {
  "creator": "Psi4",
  "version": "1.4a2.dev923",
  "routine": "psi4.schema_runner.run_qcschema",
  "memory": 200.0,
  "qcengine_version": "v0.17.0",
  "cpu": "AMD EPYC Processor (with IBPB)",
  "hostname": "bignimbus",
  "wall_time": 63.54463291168213,
  "nthreads": 32,
  "username": "ubuntu"
 },
 "properties": {
  "calcinfo_nbasis": 418,
  "calcinfo_nmo": 418,
  "calcinfo_nalpha": 55,
  "calcinfo_nbeta": 55,
  "calcinfo_natom": 29,
  "nuclear_repulsion_energy": 980.0399976067333,
  "return_energy": -687.2033539646776,
  "scf_one_electron_energy": -2877.650454291848,
  "scf_two_electron_energy": 1287.9655541329705,
  "scf_xc_energy": -77.50276804253377,
  "scf_dispersion_correction_energy": -0.05568337,
  "scf_dipole_moment": [
   0.7041404873009629,
   0.4654071696960269,
   -0.07245303678481196
  ],
  "scf_total_energy": -687.2033539646776,
  "scf_iterations": 15
 },
 "wavefunction": null,
 "return_result": -687.2033539646776,
 "stdout": "\n    -----------------------------------------------------------------------\n          Psi4: An Open-Source Ab Initio Electronic Structure Package\n                               Psi4 1.4a2.dev923 \n\n                         Git: Rev {master} 5de566e \n\n\n    D. G. A. Smith, L. A. Burns, A. C. Simmonett, R. M. Parrish,\n    M. C. Schieber, R. Galvelis, P. Kraus, H. Kruse, R. Di Remigio,\n    A. Alenaizan, A. M. James, S. Lehtola, J. P. Misiewicz, M. Scheurer,\n    R. A. Shaw, J. B. Schriber, Y. Xie, Z. L. Glick, D. A. Sirianni,\n    J. S. O'Brien, J. M. Waldrop, A. Kumar, E. G. Hohenstein,\n    B. P. Pritchard, B. R. Brooks, H. F. Schaefer III, A. Yu. Sokolov,\n    K. Patkowski, A. E. DePrince III, U. Bozkaya, R. A. King,\n    F. A. Evangelista, J. M. Turney, T. D. Crawford, C. D. Sherrill,\n    J. Chem. Phys. 152(18) 184108 (2020). https://doi.org/10.1063/5.0006002\n\n                            Additional Code Authors\n    E. T. Seidl, C. L. Janssen, E. F. Valeev, M. L. Leininger,\n    J. F. Gonthier, R. M. Richard, H. R. McAlexander, M. Saitow, X. Wang,\n    P. Verma, and M. H. Lechner\n\n             Previous Authors, Complete List of Code Contributors,\n                       and Citations for Specific Modules\n    https://github.com/psi4/psi4/blob/master/codemeta.json\n    https://github.com/psi4/psi4/graphs/contributors\n    http://psicode.org/psi4manual/master/introduction.html#citing-psifour\n\n    -----------------------------------------------------------------------\n\n\n    Psi4 started on: Monday, 17 May 2021 03:39AM\n\n    Process ID: 2484055\n    Host:       bignimbus\n    PSIDATADIR: /home/ubuntu/pk/Applications/miniconda3/envs/psi4-1.4a2.dev923/share/psi4\n    Memory:     186.3 GiB\n    Threads:    32\n    \n  ==> Input QCSchema <==\n\n--------------------------------------------------------------------------\n{'driver': 'energy',\n 'extras': {},\n 'id': None,\n 'keywords': {'guess': 'SAP'},\n 'model': {'basis': 'def2-svpd', 'method': 'b3lyp-d3bj'},\n 'molecule': {'atom_labels': ['', '', '', '', '', '', '', '', '', '', '', '', '', '', '', '', '', '', '', '', '', '',\n                              '', '', '', '', '', '', ''],\n              'atomic_numbers': [6, 6, 6, 6, 6, 6, 6, 6, 6, 6, 6, 7, 7, 8, 8, 1, 1, 1, 1, 1, 1, 1, 1, 1, 1, 1, 1, 1, 1],\n              'fix_com': False,\n              'fix_orientation': False,\n              'fragment_charges': [0.0],\n              'fragment_multiplicities': [1],\n              'fragments': [[0, 1, 2, 3, 4, 5, 6, 7, 8, 9, 10, 11, 12, 13, 14, 15, 16, 17, 18, 19, 20, 21, 22, 23, 24,\n                             25, 26, 27, 28]],\n              'geometry': [3.5554869353951926, -3.236440918778536, 0.8987056250420729, 1.9118674021602402,\n                           -2.1200908793426994, -0.8500015780295875, -0.0895377578598957, -3.5708411847611767,\n                           -1.8005413780393766, -0.47476409771284983, -6.044851730949308, -0.9774258106692102,\n                           1.1492816523146114, -7.116863126303528, 0.8023390412743544, 3.179259471351669,\n                           -5.710740593063864, 1.7242154754131995, 2.245761221541258, 0.6061357436319152,\n                           -1.620801967342583, 0.5894710746351102, 2.4603425768356377, -0.03477939668545815,\n                           1.1230805995851387, 5.183783743501326, -0.905587872009928, -3.64673364998208,\n                           0.981350314472195, 1.327270943856277, -6.402859519713687, 0.7233157709454296,\n                           0.5788449118687069, 2.9003529027692228, 6.426609373061805, 0.4517494915749154,\n                           -2.1008904362044394, 2.0184924833594646, -0.4250720922807645, -2.8823526603172667,\n                           0.22589450129791722, 3.4161231803319723, 0.03665248361980211, 6.059902349238336,\n                           -2.7759424149556864, -6.847648137314948, -1.2897149841985218, 0.40530569258953975,\n                           3.2907967764545667, 8.23674779301985, -0.030142008773584198, -7.5839118919590724,\n                           1.500892718144316, 2.0856010304673767, -6.862550517540306, 1.6648434670629104,\n                           -1.2028077764741916, -2.8259896888993623, 2.8377152149111886, -2.004539203008676,\n                           0.9944960751044861, 2.2142076387208807, 1.972695563649648, 1.765243552085968,\n                           0.8727024006151218, -3.6180988627659687, 4.218451993085062, 1.1801306056091043,\n                           -1.3713845749479034, -1.3569543934909536, -2.74381388431131, -3.1906276953784025,\n                           5.1413866738541625, -2.150908532996665, 1.6280132978183914, -2.0421180639765755,\n                           -7.138797177441717, -1.7292231140645988, 4.456661419829648, -6.532635397356987,\n                           3.1048512723988146, 0.8413810157892669, -9.035857329992446, 1.4615057494520514,\n                           3.4748976750489193, 5.761297275524117, 2.171277433543384],\n              'mass_numbers': [12, 12, 12, 12, 12, 12, 12, 12, 12, 12, 12, 14, 14, 16, 16, 1, 1, 1, 1, 1, 1, 1, 1, 1, 1,\n                               1, 1, 1, 1],\n              'masses': [12.0, 12.0, 12.0, 12.0, 12.0, 12.0, 12.0, 12.0, 12.0, 12.0, 12.0, 14.00307400443,\n                         14.00307400443, 15.99491461957, 15.99491461957, 1.00782503223, 1.00782503223, 1.00782503223,\n                         1.00782503223, 1.00782503223, 1.00782503223, 1.00782503223, 1.00782503223, 1.00782503223,\n                         1.00782503223, 1.00782503223, 1.00782503223, 1.00782503223, 1.00782503223],\n              'molecular_charge': 0.0,\n              'molecular_multiplicity': 1,\n              'name': 'C11H14N2O2',\n              'provenance': {'creator': 'QCElemental',\n                             'routine': 'qcelemental.molparse.from_string',\n                             'version': 'v0.19.0'},\n              'real': [True, True, True, True, True, True, True, True, True, True, True, True, True, True, True, True,\n                       True, True, True, True, True, True, True, True, True, True, True, True, True],\n              'symbols': ['C', 'C', 'C', 'C', 'C', 'C', 'C', 'C', 'C', 'C', 'C', 'N', 'N', 'O', 'O', 'H', 'H', 'H', 'H',\n                          'H', 'H', 'H', 'H', 'H', 'H', 'H', 'H', 'H', 'H'],\n              'validated': True},\n 'protocols': {},\n 'provenance': {'creator': 'QCElemental', 'routine': 'qcelemental.models.results', 'version': 'v0.17.0'},\n 'schema_name': 'qcschema_input',\n 'schema_version': 1}\n--------------------------------------------------------------------------\n\nScratch directory: /home/ubuntu/pk/scratch/tmpvz0uf_7r_psi_scratch/\n\n*** tstart() called on bignimbus\n*** at Mon May 17 03:39:14 2021\n\n   => Loading Basis Set <=\n\n    Name: DEF2-SVPD\n    Role: ORBITAL\n    Keyword: BASIS\n    atoms 1-11  entry C          line   101 file /home/ubuntu/pk/Applications/miniconda3/envs/psi4-1.4a2.dev923/share/psi4/basis/def2-svpd.gbs \n    atoms 12-13 entry N          line   125 file /home/ubuntu/pk/Applications/miniconda3/envs/psi4-1.4a2.dev923/share/psi4/basis/def2-svpd.gbs \n    atoms 14-15 entry O          line   149 file /home/ubuntu/pk/Applications/miniconda3/envs/psi4-1.4a2.dev923/share/psi4/basis/def2-svpd.gbs \n    atoms 16-29 entry H          line    14 file /home/ubuntu/pk/Applications/miniconda3/envs/psi4-1.4a2.dev923/share/psi4/basis/def2-svpd.gbs \n\n   => B3LYP-D3(BJ): Empirical Dispersion <=\n\n    Grimme's -D3 (BJ-damping) Dispersion Correction\n    Grimme S.; Ehrlich S.; Goerigk L. (2011), J. Comput. Chem., 32: 1456\n\n        s6 =       1.000000\n        s8 =       1.988900\n        a1 =       0.398100\n        a2 =       4.421100\n\n\n         ---------------------------------------------------------\n                                   SCF\n               by Justin Turney, Rob Parrish, Andy Simmonett\n                          and Daniel G. A. Smith\n                              RKS Reference\n                       32 Threads, 190734 MiB Core\n         ---------------------------------------------------------\n\n  ==> Geometry <==\n\n    Molecular point group: c1\n    Full point group: C1\n\n    Geometry (in Bohr), charge = 0, multiplicity = 1:\n\n       Center              X                  Y                   Z               Mass       \n    ------------   -----------------  -----------------  -----------------  -----------------\n         C            3.555486935395    -3.236440918779     0.898705625042    12.000000000000\n         C            1.911867402160    -2.120090879343    -0.850001578030    12.000000000000\n         C           -0.089537757860    -3.570841184761    -1.800541378039    12.000000000000\n         C           -0.474764097713    -6.044851730949    -0.977425810669    12.000000000000\n         C            1.149281652315    -7.116863126304     0.802339041274    12.000000000000\n         C            3.179259471352    -5.710740593064     1.724215475413    12.000000000000\n         C            2.245761221541     0.606135743632    -1.620801967343    12.000000000000\n         C            0.589471074635     2.460342576836    -0.034779396685    12.000000000000\n         C            1.123080599585     5.183783743501    -0.905587872010    12.000000000000\n         C           -3.646733649982     0.981350314472     1.327270943856    12.000000000000\n         C           -6.402859519714     0.723315770945     0.578844911869    12.000000000000\n         N            2.900352902769     6.426609373062     0.451749491575    14.003074004430\n         N           -2.100890436204     2.018492483359    -0.425072092281    14.003074004430\n         O           -2.882352660317     0.225894501298     3.416123180332    15.994914619570\n         O            0.036652483620     6.059902349238    -2.775942414956    15.994914619570\n         H           -6.847648137315    -1.289714984199     0.405305692590     1.007825032230\n         H            3.290796776455     8.236747793020    -0.030142008774     1.007825032230\n         H           -7.583911891959     1.500892718144     2.085601030467     1.007825032230\n         H           -6.862550517540     1.664843467063    -1.202807776474     1.007825032230\n         H           -2.825989688899     2.837715214911    -2.004539203009     1.007825032230\n         H            0.994496075104     2.214207638721     1.972695563650     1.007825032230\n         H            1.765243552086     0.872702400615    -3.618098862766     1.007825032230\n         H            4.218451993085     1.180130605609    -1.371384574948     1.007825032230\n         H           -1.356954393491    -2.743813884311    -3.190627695378     1.007825032230\n         H            5.141386673854    -2.150908532997     1.628013297818     1.007825032230\n         H           -2.042118063977    -7.138797177442    -1.729223114065     1.007825032230\n         H            4.456661419830    -6.532635397357     3.104851272399     1.007825032230\n         H            0.841381015789    -9.035857329992     1.461505749452     1.007825032230\n         H            3.474897675049     5.761297275524     2.171277433543     1.007825032230\n\n  Running in c1 symmetry.\n\n  Rotational constants: A =      0.02825  B =      0.01408  C =      0.01109 [cm^-1]\n  Rotational constants: A =    846.77580  B =    422.03348  C =    332.43779 [MHz]\n  Nuclear repulsion =  980.039997606733323\n\n  Charge       = 0\n  Multiplicity = 1\n  Electrons    = 110\n  Nalpha       = 55\n  Nbeta        = 55\n\n  ==> Algorithm <==\n\n  SCF Algorithm Type is DF.\n  DIIS enabled.\n  MOM disabled.\n  Fractional occupation disabled.\n  Guess Type is SAP.\n  Energy threshold   = 1.00e-06\n  Density threshold  = 1.00e-06\n  Integral threshold = 0.00e+00\n\n  ==> Primary Basis <==\n\n  Basis Set: DEF2-SVPD\n    Blend: DEF2-SVPD\n    Number of shells: 178\n    Number of basis function: 418\n    Number of Cartesian functions: 448\n    Spherical Harmonics?: true\n    Max angular momentum: 2\n\n  ==> DFT Potential <==\n\n   => Composite Functional: B3LYP-D3BJ <= \n\n    B3LYP-d3bj Hyb-GGA Exchange-Correlation Functional\n\n    P. J. Stephens, F. J. Devlin, C. F. Chabalowski, and M. J. Frisch, J. Phys. Chem. 98, 11623 (1994)\n\n    Deriv               =              1\n    GGA                 =           TRUE\n    Meta                =          FALSE\n\n    Exchange Hybrid     =           TRUE\n    MP2 Hybrid          =          FALSE\n\n   => Exchange Functionals <=\n\n    0.0800   Slater exchange\n    0.7200         Becke 88\n\n   => Exact (HF) Exchange <=\n\n    0.2000               HF \n\n   => Correlation Functionals <=\n\n    0.1900   Vosko, Wilk & Nusair (VWN5_RPA)\n    0.8100   Lee, Yang & Parr\n\n   => LibXC Density Thresholds  <==\n\n    XC_HYB_GGA_XC_B3LYP:  1.00E-32 \n\n   => Molecular Quadrature <=\n\n    Radial Scheme          =       TREUTLER\n    Pruning Scheme         =           NONE\n    Nuclear Scheme         =       TREUTLER\n\n    BS radius alpha        =              1\n    Pruning alpha          =              1\n    Radial Points          =             75\n    Spherical Points       =            302\n    Total Points           =         603992\n    Total Blocks           =           4341\n    Max Points             =            256\n    Max Functions          =            368\n    Weights Tolerance      =       1.00E-15\n\n   => Loading Basis Set <=\n\n    Name: (DEF2-SVPD AUX)\n    Role: JKFIT\n    Keyword: DF_BASIS_SCF\n    atoms 1-11  entry C          line   198 file /home/ubuntu/pk/Applications/miniconda3/envs/psi4-1.4a2.dev923/share/psi4/basis/def2-universal-jkfit.gbs \n    atoms 12-13 entry N          line   258 file /home/ubuntu/pk/Applications/miniconda3/envs/psi4-1.4a2.dev923/share/psi4/basis/def2-universal-jkfit.gbs \n    atoms 14-15 entry O          line   318 file /home/ubuntu/pk/Applications/miniconda3/envs/psi4-1.4a2.dev923/share/psi4/basis/def2-universal-jkfit.gbs \n    atoms 16-29 entry H          line    18 file /home/ubuntu/pk/Applications/miniconda3/envs/psi4-1.4a2.dev923/share/psi4/basis/def2-universal-jkfit.gbs \n\n  ==> Integral Setup <==\n\n  DFHelper Memory: AOs need 1.748 GiB; user supplied 134.661 GiB. Using in-core AOs.\n\n  ==> MemDFJK: Density-Fitted J/K Matrices <==\n\n    J tasked:                   Yes\n    K tasked:                   Yes\n    wK tasked:                   No\n    OpenMP threads:              32\n    Memory [MiB]:            137892\n    Algorithm:                 Core\n    Schwarz Cutoff:           1E-12\n    Mask sparsity (%):       8.0848\n    Fitting Condition:        1E-10\n\n   => Auxiliary Basis Set <=\n\n  Basis Set: (DEF2-SVPD AUX)\n    Blend: DEF2-UNIVERSAL-JKFIT\n    Number of shells: 459\n    Number of basis function: 1385\n    Number of Cartesian functions: 1631\n    Spherical Harmonics?: true\n    Max angular momentum: 4\n\n  Cached 100.0% of DFT collocation blocks in 5.038 [GiB].\n\n  Minimum eigenvalue in the overlap matrix is 5.3081464840E-06.\n  Reciprocal condition number of the overlap matrix is 3.8976517639E-07.\n    Using symmetric orthogonalization.\n\n  ==> Pre-Iterations <==\n\n  SCF Guess: Superposition of Atomic Potentials (doi:10.1021/acs.jctc.8b01089).\n\n  ==> SAP guess <==\n\n   => Molecular Quadrature <=\n\n    Radial Scheme          =       TREUTLER\n    Pruning Scheme         =           NONE\n    Nuclear Scheme         =       TREUTLER\n\n    BS radius alpha        =              1\n    Pruning alpha          =              1\n    Radial Points          =             75\n    Spherical Points       =            302\n    Total Points           =         603992\n    Total Blocks           =           4341\n    Max Points             =            256\n    Max Functions          =            368\n    Weights Tolerance      =       1.00E-15\n\n   -------------------------------------------------------\n    Irrep   Nso     Nmo     Nalpha   Nbeta   Ndocc  Nsocc\n   -------------------------------------------------------\n     A        418     418      55      55      55       0\n   -------------------------------------------------------\n    Total     418     418      55      55      55       0\n   -------------------------------------------------------\n\n  ==> Iterations <==\n\n                           Total Energy        Delta E     RMS |[F,P]|\n\n   @DF-RKS iter   1:  -674.12734168054828   -6.74127e+02   1.14016e-02 DIIS\n   @DF-RKS iter   2:  -497.43145142756129    1.76696e+02   2.82508e-02 DIIS\n   @DF-RKS iter   3:  -644.14802552101651   -1.46717e+02   1.43751e-02 DIIS\n   @DF-RKS iter   4:  -549.39625642467115    9.47518e+01   2.41271e-02 DIIS\n   @DF-RKS iter   5:  -672.23540135540281   -1.22839e+02   8.71934e-03 DIIS\n   @DF-RKS iter   6:  -686.14723231944458   -1.39118e+01   3.23661e-03 DIIS\n   @DF-RKS iter   7:  -686.14386941638281    3.36290e-03   3.23309e-03 DIIS\n   @DF-RKS iter   8:  -687.16712678153681   -1.02326e+00   5.87992e-04 DIIS\n   @DF-RKS iter   9:  -687.18163409262979   -1.45073e-02   5.12572e-04 DIIS\n   @DF-RKS iter  10:  -687.20261169964567   -2.09776e-02   8.74261e-05 DIIS\n   @DF-RKS iter  11:  -687.20291626763662   -3.04568e-04   6.78942e-05 DIIS\n   @DF-RKS iter  12:  -687.20329709120313   -3.80824e-04   2.54789e-05 DIIS\n   @DF-RKS iter  13:  -687.20334335664938   -4.62654e-05   1.17223e-05 DIIS\n   @DF-RKS iter  14:  -687.20335360616264   -1.02495e-05   2.16543e-06 DIIS\n   @DF-RKS iter  15:  -687.20335396467760   -3.58515e-07   9.13831e-07 DIIS\n  Energy and wave function converged.\n\n\n  ==> Post-Iterations <==\n\n    Orbital Energies [Eh]\n    ---------------------\n\n    Doubly Occupied:                                                      \n\n       1A    -19.132024     2A    -19.100357     3A    -14.383117  \n       4A    -14.361874     5A    -10.313552     6A    -10.290190  \n       7A    -10.249024     8A    -10.206909     9A    -10.201666  \n      10A    -10.193561    11A    -10.192314    12A    -10.192249  \n      13A    -10.191752    14A    -10.191215    15A    -10.190545  \n      16A     -1.047338    17A     -1.015885    18A     -0.926068  \n      19A     -0.921668    20A     -0.855448    21A     -0.795636  \n      22A     -0.750688    23A     -0.741851    24A     -0.718456  \n      25A     -0.666974    26A     -0.617864    27A     -0.606322  \n      28A     -0.591154    29A     -0.585386    30A     -0.571566  \n      31A     -0.523284    32A     -0.502565    33A     -0.489951  \n      34A     -0.476846    35A     -0.467516    36A     -0.459636  \n      37A     -0.453509    38A     -0.440795    39A     -0.433352  \n      40A     -0.425330    41A     -0.414024    42A     -0.407022  \n      43A     -0.399933    44A     -0.395072    45A     -0.381710  \n      46A     -0.366614    47A     -0.357183    48A     -0.349074  \n      49A     -0.346309    50A     -0.303870    51A     -0.287974  \n      52A     -0.267998    53A     -0.258402    54A     -0.254567  \n      55A     -0.249063  \n\n    Virtual:                                                              \n\n      56A     -0.025270    57A     -0.017024    58A     -0.007059  \n      59A      0.000700    60A      0.012308    61A      0.016339  \n      62A      0.030702    63A      0.041037    64A      0.045017  \n      65A      0.052733    66A      0.060893    67A      0.064576  \n      68A      0.073746    69A      0.081120    70A      0.087034  \n      71A      0.091109    72A      0.093096    73A      0.101025  \n      74A      0.107242    75A      0.114232    76A      0.120403  \n      77A      0.124295    78A      0.128124    79A      0.135268  \n      80A      0.136118    81A      0.142764    82A      0.144826  \n      83A      0.150205    84A      0.155569    85A      0.163326  \n      86A      0.167837    87A      0.174517    88A      0.177443  \n      89A      0.180966    90A      0.185507    91A      0.189574  \n      92A      0.200634    93A      0.203200    94A      0.214896  \n      95A      0.215767    96A      0.217112    97A      0.222141  \n      98A      0.227896    99A      0.232031   100A      0.234653  \n     101A      0.241315   102A      0.252719   103A      0.255773  \n     104A      0.259518   105A      0.262539   106A      0.265167  \n     107A      0.275220   108A      0.277600   109A      0.283451  \n     110A      0.291198   111A      0.296755   112A      0.298960  \n     113A      0.302587   114A      0.305982   115A      0.311356  \n     116A      0.319130   117A      0.320375   118A      0.325942  \n     119A      0.331947   120A      0.335480   121A      0.337174  \n     122A      0.342079   123A      0.344662   124A      0.347198  \n     125A      0.354681   126A      0.358306   127A      0.359485  \n     128A      0.363410   129A      0.364931   130A      0.369371  \n     131A      0.372393   132A      0.377882   133A      0.383388  \n     134A      0.388619   135A      0.393621   136A      0.394941  \n     137A      0.400212   138A      0.403027   139A      0.406154  \n     140A      0.409675   141A      0.412225   142A      0.412946  \n     143A      0.417970   144A      0.424894   145A      0.426083  \n     146A      0.428941   147A      0.438688   148A      0.441205  \n     149A      0.443245   150A      0.447295   151A      0.451492  \n     152A      0.457908   153A      0.462795   154A      0.465780  \n     155A      0.469628   156A      0.474331   157A      0.476193  \n     158A      0.482350   159A      0.483685   160A      0.487570  \n     161A      0.492904   162A      0.493650   163A      0.503486  \n     164A      0.508744   165A      0.512949   166A      0.515406  \n     167A      0.527505   168A      0.531308   169A      0.534177  \n     170A      0.539804   171A      0.543612   172A      0.551244  \n     173A      0.551849   174A      0.561660   175A      0.562078  \n     176A      0.567281   177A      0.568125   178A      0.578315  \n     179A      0.583814   180A      0.591312   181A      0.595972  \n     182A      0.602562   183A      0.609482   184A      0.616732  \n     185A      0.623529   186A      0.626535   187A      0.628526  \n     188A      0.632846   189A      0.640663   190A      0.644581  \n     191A      0.649366   192A      0.654809   193A      0.658490  \n     194A      0.670383   195A      0.679304   196A      0.681615  \n     197A      0.683946   198A      0.693670   199A      0.703058  \n     200A      0.709505   201A      0.717096   202A      0.724702  \n     203A      0.728940   204A      0.729931   205A      0.740317  \n     206A      0.745968   207A      0.749696   208A      0.767624  \n     209A      0.771208   210A      0.774550   211A      0.784328  \n     212A      0.786883   213A      0.793221   214A      0.799718  \n     215A      0.800892   216A      0.813139   217A      0.823066  \n     218A      0.827973   219A      0.832467   220A      0.844743  \n     221A      0.847637   222A      0.859074   223A      0.864344  \n     224A      0.885003   225A      0.888030   226A      0.901538  \n     227A      0.911595   228A      0.916487   229A      0.931551  \n     230A      0.943007   231A      0.945112   232A      0.956208  \n     233A      0.970456   234A      0.978875   235A      0.980265  \n     236A      0.986489   237A      0.991163   238A      0.999274  \n     239A      1.000914   240A      1.019717   241A      1.028445  \n     242A      1.034152   243A      1.041599   244A      1.048665  \n     245A      1.056866   246A      1.059873   247A      1.065983  \n     248A      1.079816   249A      1.098115   250A      1.104958  \n     251A      1.112743   252A      1.118860   253A      1.125370  \n     254A      1.133384   255A      1.135318   256A      1.149056  \n     257A      1.158431   258A      1.182777   259A      1.185715  \n     260A      1.199482   261A      1.205469   262A      1.210089  \n     263A      1.229444   264A      1.234601   265A      1.243777  \n     266A      1.261814   267A      1.270131   268A      1.292445  \n     269A      1.295943   270A      1.301911   271A      1.314021  \n     272A      1.326472   273A      1.341062   274A      1.351673  \n     275A      1.366380   276A      1.369248   277A      1.373415  \n     278A      1.385556   279A      1.405200   280A      1.428031  \n     281A      1.459366   282A      1.471702   283A      1.503164  \n     284A      1.516319   285A      1.543378   286A      1.549411  \n     287A      1.560994   288A      1.564102   289A      1.589796  \n     290A      1.594607   291A      1.608612   292A      1.617562  \n     293A      1.625374   294A      1.636015   295A      1.647140  \n     296A      1.655901   297A      1.669262   298A      1.674553  \n     299A      1.697517   300A      1.709672   301A      1.726198  \n     302A      1.728656   303A      1.734440   304A      1.747696  \n     305A      1.752600   306A      1.764236   307A      1.774381  \n     308A      1.804166   309A      1.813776   310A      1.827206  \n     311A      1.835468   312A      1.842300   313A      1.868350  \n     314A      1.873984   315A      1.880762   316A      1.886431  \n     317A      1.897212   318A      1.903185   319A      1.911155  \n     320A      1.915923   321A      1.932105   322A      1.938064  \n     323A      1.953853   324A      1.964516   325A      1.965414  \n     326A      1.973251   327A      1.994252   328A      2.001455  \n     329A      2.007288   330A      2.017500   331A      2.025220  \n     332A      2.034227   333A      2.045929   334A      2.048889  \n     335A      2.057966   336A      2.076892   337A      2.081009  \n     338A      2.095275   339A      2.112301   340A      2.119539  \n     341A      2.127971   342A      2.130972   343A      2.136751  \n     344A      2.168684   345A      2.175624   346A      2.197807  \n     347A      2.203976   348A      2.217716   349A      2.222491  \n     350A      2.238336   351A      2.252162   352A      2.262744  \n     353A      2.286399   354A      2.293688   355A      2.307742  \n     356A      2.318465   357A      2.344298   358A      2.361374  \n     359A      2.368478   360A      2.381193   361A      2.404001  \n     362A      2.412068   363A      2.433096   364A      2.444441  \n     365A      2.459715   366A      2.474290   367A      2.479903  \n     368A      2.498835   369A      2.518042   370A      2.538967  \n     371A      2.540793   372A      2.561677   373A      2.571782  \n     374A      2.577985   375A      2.625699   376A      2.654223  \n     377A      2.661862   378A      2.677228   379A      2.682093  \n     380A      2.687192   381A      2.715930   382A      2.760217  \n     383A      2.786285   384A      2.831818   385A      2.839210  \n     386A      2.844414   387A      2.855472   388A      2.882708  \n     389A      2.896406   390A      2.925825   391A      2.957369  \n     392A      2.962964   393A      2.992590   394A      3.003154  \n     395A      3.017030   396A      3.022545   397A      3.025733  \n     398A      3.058639   399A      3.085016   400A      3.106259  \n     401A      3.120647   402A      3.131521   403A      3.168319  \n     404A      3.185556   405A      3.202442   406A      3.213704  \n     407A      3.216401   408A      3.229188   409A      3.283408  \n     410A      3.299572   411A      3.329377   412A      3.417213  \n     413A      3.483026   414A      3.564927   415A      3.625944  \n     416A      3.687986   417A      3.805282   418A      3.830451  \n\n    Final Occupation by Irrep:\n              A \n    DOCC [    55 ]\n\n  @DF-RKS Final Energy:  -687.20335396467760\n\n   => Energetics <=\n\n    Nuclear Repulsion Energy =            980.0399976067333228\n    One-Electron Energy =               -2877.6504542918478364\n    Two-Electron Energy =                1287.9655541329705102\n    DFT Exchange-Correlation Energy =     -77.5027680425337735\n    Empirical Dispersion Energy =          -0.0556833700000000\n    VV10 Nonlocal Energy =                  0.0000000000000000\n    Total Energy =                       -687.2033539646777172\n\nComputation Completed\n\n\nProperties will be evaluated at   0.000000,   0.000000,   0.000000 [a0]\n\nProperties computed using the SCF density matrix\n\n  Nuclear Dipole Moment: [e a0]\n     X:    -1.6633      Y:    -2.2905      Z:    -0.1560\n\n  Electronic Dipole Moment: [e a0]\n     X:     2.3675      Y:     2.7559      Z:     0.0835\n\n  Dipole Moment: [e a0]\n     X:     0.7041      Y:     0.4654      Z:    -0.0725     Total:     0.8472\n\n  Dipole Moment: [D]\n     X:     1.7897      Y:     1.1829      Z:    -0.1842     Total:     2.1532\n\n\n*** tstop() called on bignimbus at Mon May 17 03:40:08 2021\nModule time:\n\tuser time   =    1318.06 seconds =      21.97 minutes\n\tsystem time =      29.18 seconds =       0.49 minutes\n\ttotal time  =         54 seconds =       0.90 minutes\nTotal time:\n\tuser time   =    1318.06 seconds =      21.97 minutes\n\tsystem time =      29.18 seconds =       0.49 minutes\n\ttotal time  =         54 seconds =       0.90 minutes\n\n    Psi4 stopped on: Monday, 17 May 2021 03:40AM\n    Psi4 wall time for execution: 0:00:54.49\n\n*** Psi4 exiting successfully. Buy a developer a beer!\n",
 "stderr": null,
 "success": true,
 "error": null,
 "tag": "b3lyp-d3bj def2-svpd phe_a"
}