{
 "id": null,
 "schema_name": "qcschema_output",
 "schema_version": 1,
 "molecule": {
  "validated": true,
  "symbols": [
   "C",
   "C",
   "C",
   "C",
   "C",
   "C",
   "C",
   "C",
   "C",
   "N",
   "N",
   "N",
   "N",
   "N",
   "N",
   "N",
   "N",
   "O",
   "O",
   "H",
   "H",
   "H",
   "H",
   "H",
   "H",
   "H",
   "H",
   "H",
   "H"
  ],
  "geometry": [
   -5.385731230938672,
   -0.06512979195590196,
   -2.408510240614475,
   -9.333369107020077,
   -0.3920524116601065,
   -0.08225738017588884,
   -8.074811507465164,
   -0.25599213062714243,
   2.149509173989806,
   -5.368723695809551,
   -0.06324006583044417,
   2.039905058713252,
   2.48686780771864,
   0.11061473771167618,
   2.011559166831385,
   2.496316438345929,
   0.18242433047907314,
   -2.6768513504294873,
   6.185061835239609,
   0.09171747645709827,
   -0.6794108358205626,
   5.168389179743299,
   0.10872501158621839,
   1.7658947705218673,
   9.155711304459315,
   -0.055681161328613,
   2.2742310982700227,
   -8.042686163332379,
   -0.2843380225090102,
   -2.304575303714295,
   -4.125283905258301,
   0.0482537755715673,
   -0.17674368644878027,
   -3.98733389809988,
   0.00856952693695368,
   4.156398319226019,
   1.2925608964292925,
   0.15974761697357875,
   -0.3694957512454787,
   4.998313828452094,
   0.13518117734262747,
   -2.9300746512408358,
   7.056225579075669,
   0.01801815756424264,
   3.5819215770868396,
   8.756979091987713,
   0.006679800811495002,
   -0.3165834197326595,
   1.026109512739739,
   0.2920284457556277,
   -4.761219266809471,
   -4.359609944815071,
   -0.01032773431762512,
   -4.515554870499954,
   1.1886259595291122,
   0.04447432332065172,
   3.978764063432984,
   -8.927077990046644,
   -0.5243332404421541,
   -3.986431555371763,
   -11.362934965761784,
   -0.6225989989659614,
   -0.21075875670702118,
   -9.076366353957813,
   -0.37504487653098595,
   3.9277414580456225,
   -4.841490106806818,
   -0.27488939188172123,
   5.840144297008944,
   -2.0125700969964484,
   0.027466788191531595,
   4.078919548082249,
   -0.6840926307995956,
   0.13896062959354305,
   -0.3317012287363222,
   11.03976825154077,
   -0.17473390723245563,
   3.052798261958648,
   10.06466957080453,
   -0.19363116848703443,
   -1.6979732174423317,
   1.9218396962067494,
   0.025577062066073804,
   -6.426067983337818,
   -0.9127494919799929,
   0.1257325467153385,
   -4.691299400167532
  ],
  "name": "C9H10N8O2",
  "molecular_charge": 0.0,
  "molecular_multiplicity": 1,
  "masses": [
   12.0,
   12.0,
   12.0,
   12.0,
   12.0,
   12.0,
   12.0,
   12.0,
   12.0,
   14.00307400443,
   14.00307400443,
   14.00307400443,
   14.00307400443,
   14.00307400443,
   14.00307400443,
   14.00307400443,
   14.00307400443,
   15.99491461957,
   15.99491461957,
   1.00782503223,
   1.00782503223,
   1.00782503223,
   1.00782503223,
   1.00782503223,
   1.00782503223,
   1.00782503223,
   1.00782503223,
   1.00782503223,
   1.00782503223
  ],
  "real": [
   true,
   true,
   true,
   true,
   true,
   true,
   true,
   true,
   true,
   true,
   true,
   true,
   true,
   true,
   true,
   true,
   true,
   true,
   true,
   true,
   true,
   true,
   true,
   true,
   true,
   true,
   true,
   true,
   true
  ],
  "atom_labels": [
   "",
   "",
   "",
   "",
   "",
   "",
   "",
   "",
   "",
   "",
   "",
   "",
   "",
   "",
   "",
   "",
   "",
   "",
   "",
   "",
   "",
   "",
   "",
   "",
   "",
   "",
   "",
   "",
   ""
  ],
  "atomic_numbers": [
   6,
   6,
   6,
   6,
   6,
   6,
   6,
   6,
   6,
   7,
   7,
   7,
   7,
   7,
   7,
   7,
   7,
   8,
   8,
   1,
   1,
   1,
   1,
   1,
   1,
   1,
   1,
   1,
   1
  ],
  "mass_numbers": [
   12,
   12,
   12,
   12,
   12,
   12,
   12,
   12,
   12,
   14,
   14,
   14,
   14,
   14,
   14,
   14,
   14,
   16,
   16,
   1,
   1,
   1,
   1,
   1,
   1,
   1,
   1,
   1,
   1
  ],
  "fragments": [
   [
    0,
    1,
    2,
    3,
    4,
    5,
    6,
    7,
    8,
    9,
    10,
    11,
    12,
    13,
    14,
    15,
    16,
    17,
    18,
    19,
    20,
    21,
    22,
    23,
    24,
    25,
    26,
    27,
    28
   ]
  ],
  "fragment_charges": [
   0.0
  ],
  "fragment_multiplicities": [
   1
  ],
  "fix_com": false,
  "fix_orientation": false,
  "provenance": {
   "creator": "QCElemental",
   "version": "v0.19.0",
   "routine": "qcelemental.molparse.from_string"
  }
 },
 "driver": "energy",
 "model": {
  "method": "b3lyp-d3bj",
  "basis": "def2-svpd"
 },
 "keywords": {
  "guess": "SAP"
 },
 "protocols": {},
 "extras": {
  "qcvars": {
   "2-BODY DISPERSION CORRECTION ENERGY": -0.05928615,
   "B3LYP-D3(BJ) DISPERSION CORRECTION ENERGY": -0.05928615,
   "CURRENT DIPOLE X": -5.833896733724651,
   "CURRENT DIPOLE Y": -1.198297504756813,
   "CURRENT DIPOLE Z": -1.6216663008806602,
   "CURRENT ENERGY": -936.9918827549682,
   "CURRENT REFERENCE ENERGY": -936.9918827549682,
   "DFT FUNCTIONAL TOTAL ENERGY": -936.9325966049681,
   "DFT TOTAL ENERGY": -936.9918827549682,
   "DFT VV10 ENERGY": 0.0,
   "DFT XC ENERGY": -101.11300703089375,
   "DISPERSION CORRECTION ENERGY": -0.05928615,
   "NUCLEAR REPULSION ENERGY": 1391.394659364626,
   "ONE-ELECTRON ENERGY": -4038.1671411299876,
   "PCM POLARIZATION ENERGY": 0.0,
   "PE ENERGY": 0.0,
   "SCF DIPOLE X": -5.833896733724651,
   "SCF DIPOLE Y": -1.198297504756813,
   "SCF DIPOLE Z": -1.6216663008806602,
   "SCF ITERATION ENERGY": -936.9918827549682,
   "SCF ITERATIONS": 14.0,
   "SCF TOTAL ENERGY": -936.9918827549682,
   "TWO-ELECTRON ENERGY": 1810.9528921912872,
   "XC GRID RADIAL POINTS": 75.0,
   "XC GRID SPHERICAL POINTS": 302.0,
   "XC GRID TOTAL POINTS": 602805.0,
   "CURRENT DIPOLE": [
    -2.2952315835338837,
    -0.4714465142120724,
    -0.6380126151731655
   ],
   "SCF DIPOLE": [
    -2.2952315835338837,
    -0.4714465142120724,
    -0.6380126151731655
   ]
  }
 },
 "provenance": {
  "creator": "Psi4",
  "version": "1.4a2.dev923",
  "routine": "psi4.schema_runner.run_qcschema",
  "memory": 200.0,
  "cpu": "AMD EPYC Processor (with IBPB)",
  "hostname": "bignimbus",
  "wall_time": 82.58876299858093,
  "qcengine_version": "v0.17.0",
  "username": "ubuntu",
  "nthreads": 32
 },
 "properties": {
  "calcinfo_nbasis": 466,
  "calcinfo_nmo": 466,
  "calcinfo_nalpha": 68,
  "calcinfo_nbeta": 68,
  "calcinfo_natom": 29,
  "nuclear_repulsion_energy": 1391.394659364626,
  "return_energy": -936.9918827549682,
  "scf_one_electron_energy": -4038.1671411299876,
  "scf_two_electron_energy": 1810.9528921912872,
  "scf_xc_energy": -101.11300703089375,
  "scf_dispersion_correction_energy": -0.05928615,
  "scf_dipole_moment": [
   -2.2952315835338837,
   -0.4714465142120724,
   -0.6380126151731655
  ],
  "scf_total_energy": -936.9918827549682,
  "scf_iterations": 14
 },
 "wavefunction": null,
 "return_result": -936.9918827549682,
 "stdout": "\n    -----------------------------------------------------------------------\n          Psi4: An Open-Source Ab Initio Electronic Structure Package\n                               Psi4 1.4a2.dev923 \n\n                         Git: Rev {master} 5de566e \n\n\n    D. G. A. Smith, L. A. Burns, A. C. Simmonett, R. M. Parrish,\n    M. C. Schieber, R. Galvelis, P. Kraus, H. Kruse, R. Di Remigio,\n    A. Alenaizan, A. M. James, S. Lehtola, J. P. Misiewicz, M. Scheurer,\n    R. A. Shaw, J. B. Schriber, Y. Xie, Z. L. Glick, D. A. Sirianni,\n    J. S. O'Brien, J. M. Waldrop, A. Kumar, E. G. Hohenstein,\n    B. P. Pritchard, B. R. Brooks, H. F. Schaefer III, A. Yu. Sokolov,\n    K. Patkowski, A. E. DePrince III, U. Bozkaya, R. A. King,\n    F. A. Evangelista, J. M. Turney, T. D. Crawford, C. D. Sherrill,\n    J. Chem. Phys. 152(18) 184108 (2020). https://doi.org/10.1063/5.0006002\n\n                            Additional Code Authors\n    E. T. Seidl, C. L. Janssen, E. F. Valeev, M. L. Leininger,\n    J. F. Gonthier, R. M. Richard, H. R. McAlexander, M. Saitow, X. Wang,\n    P. Verma, and M. H. Lechner\n\n             Previous Authors, Complete List of Code Contributors,\n                       and Citations for Specific Modules\n    https://github.com/psi4/psi4/blob/master/codemeta.json\n    https://github.com/psi4/psi4/graphs/contributors\n    http://psicode.org/psi4manual/master/introduction.html#citing-psifour\n\n    -----------------------------------------------------------------------\n\n\n    Psi4 started on: Monday, 17 May 2021 03:40AM\n\n    Process ID: 2484521\n    Host:       bignimbus\n    PSIDATADIR: /home/ubuntu/pk/Applications/miniconda3/envs/psi4-1.4a2.dev923/share/psi4\n    Memory:     186.3 GiB\n    Threads:    32\n    \n  ==> Input QCSchema <==\n\n--------------------------------------------------------------------------\n{'driver': 'energy',\n 'extras': {},\n 'id': None,\n 'keywords': {'guess': 'SAP'},\n 'model': {'basis': 'def2-svpd', 'method': 'b3lyp-d3bj'},\n 'molecule': {'atom_labels': ['', '', '', '', '', '', '', '', '', '', '', '', '', '', '', '', '', '', '', '', '', '',\n                              '', '', '', '', '', '', ''],\n              'atomic_numbers': [6, 6, 6, 6, 6, 6, 6, 6, 6, 7, 7, 7, 7, 7, 7, 7, 7, 8, 8, 1, 1, 1, 1, 1, 1, 1, 1, 1, 1],\n              'fix_com': False,\n              'fix_orientation': False,\n              'fragment_charges': [0.0],\n              'fragment_multiplicities': [1],\n              'fragments': [[0, 1, 2, 3, 4, 5, 6, 7, 8, 9, 10, 11, 12, 13, 14, 15, 16, 17, 18, 19, 20, 21, 22, 23, 24,\n                             25, 26, 27, 28]],\n              'geometry': [-5.3857312309386725, -0.06512979195590063, -2.408510240614475, -9.333369107020077,\n                           -0.3920524116601052, -0.08225738017588882, -8.074811507465164, -0.2559921306271411,\n                           2.149509173989806, -5.368723695809552, -0.06324006583044284, 2.039905058713252,\n                           2.4868678077186392, 0.11061473771167751, 2.011559166831385, 2.496316438345928,\n                           0.18242433047907447, -2.6768513504294873, 6.185061835239608, 0.0917174764570996,\n                           -0.6794108358205626, 5.168389179743298, 0.10872501158621972, 1.7658947705218673,\n                           9.155711304459315, -0.05568116132861167, 2.2742310982700227, -8.042686163332379,\n                           -0.28433802250900886, -2.304575303714295, -4.125283905258302, 0.048253775571568625,\n                           -0.17674368644878025, -3.9873338980998807, 0.008569526936955008, 4.156398319226019,\n                           1.2925608964292916, 0.1597476169735801, -0.3694957512454787, 4.998313828452093,\n                           0.1351811773426288, -2.9300746512408358, 7.056225579075668, 0.018018157564243964,\n                           3.5819215770868396, 8.756979091987713, 0.006679800811496328, -0.3165834197326595,\n                           1.0261095127397382, 0.29202844575562903, -4.761219266809471, -4.359609944815072,\n                           -0.010327734317623793, -4.515554870499954, 1.1886259595291113, 0.04447432332065304,\n                           3.978764063432984, -8.927077990046644, -0.5243332404421528, -3.986431555371763,\n                           -11.362934965761784, -0.62259899896596, -0.21075875670702116, -9.076366353957813,\n                           -0.3750448765309846, 3.9277414580456225, -4.841490106806819, -0.2748893918817199,\n                           5.840144297008944, -2.0125700969964493, 0.02746678819153292, 4.078919548082249,\n                           -0.6840926307995965, 0.13896062959354438, -0.3317012287363222, 11.03976825154077,\n                           -0.1747339072324543, 3.052798261958648, 10.06466957080453, -0.1936311684870331,\n                           -1.6979732174423317, 1.9218396962067485, 0.02557706206607513, -6.426067983337818,\n                           -0.9127494919799938, 0.12573254671533984, -4.691299400167532],\n              'mass_numbers': [12, 12, 12, 12, 12, 12, 12, 12, 12, 14, 14, 14, 14, 14, 14, 14, 14, 16, 16, 1, 1, 1, 1,\n                               1, 1, 1, 1, 1, 1],\n              'masses': [12.0, 12.0, 12.0, 12.0, 12.0, 12.0, 12.0, 12.0, 12.0, 14.00307400443, 14.00307400443,\n                         14.00307400443, 14.00307400443, 14.00307400443, 14.00307400443, 14.00307400443, 14.00307400443,\n                         15.99491461957, 15.99491461957, 1.00782503223, 1.00782503223, 1.00782503223, 1.00782503223,\n                         1.00782503223, 1.00782503223, 1.00782503223, 1.00782503223, 1.00782503223, 1.00782503223],\n              'molecular_charge': 0.0,\n              'molecular_multiplicity': 1,\n              'name': 'C9H10N8O2',\n              'provenance': {'creator': 'QCElemental',\n                             'routine': 'qcelemental.molparse.from_string',\n                             'version': 'v0.19.0'},\n              'real': [True, True, True, True, True, True, True, True, True, True, True, True, True, True, True, True,\n                       True, True, True, True, True, True, True, True, True, True, True, True, True],\n              'symbols': ['C', 'C', 'C', 'C', 'C', 'C', 'C', 'C', 'C', 'N', 'N', 'N', 'N', 'N', 'N', 'N', 'N', 'O', 'O',\n                          'H', 'H', 'H', 'H', 'H', 'H', 'H', 'H', 'H', 'H'],\n              'validated': True},\n 'protocols': {},\n 'provenance': {'creator': 'QCElemental', 'routine': 'qcelemental.models.results', 'version': 'v0.17.0'},\n 'schema_name': 'qcschema_input',\n 'schema_version': 1}\n--------------------------------------------------------------------------\n\nScratch directory: /home/ubuntu/pk/scratch/tmpdeqgnkp9_psi_scratch/\n\n*** tstart() called on bignimbus\n*** at Mon May 17 03:40:23 2021\n\n   => Loading Basis Set <=\n\n    Name: DEF2-SVPD\n    Role: ORBITAL\n    Keyword: BASIS\n    atoms 1-9   entry C          line   101 file /home/ubuntu/pk/Applications/miniconda3/envs/psi4-1.4a2.dev923/share/psi4/basis/def2-svpd.gbs \n    atoms 10-17 entry N          line   125 file /home/ubuntu/pk/Applications/miniconda3/envs/psi4-1.4a2.dev923/share/psi4/basis/def2-svpd.gbs \n    atoms 18-19 entry O          line   149 file /home/ubuntu/pk/Applications/miniconda3/envs/psi4-1.4a2.dev923/share/psi4/basis/def2-svpd.gbs \n    atoms 20-29 entry H          line    14 file /home/ubuntu/pk/Applications/miniconda3/envs/psi4-1.4a2.dev923/share/psi4/basis/def2-svpd.gbs \n\n   => B3LYP-D3(BJ): Empirical Dispersion <=\n\n    Grimme's -D3 (BJ-damping) Dispersion Correction\n    Grimme S.; Ehrlich S.; Goerigk L. (2011), J. Comput. Chem., 32: 1456\n\n        s6 =       1.000000\n        s8 =       1.988900\n        a1 =       0.398100\n        a2 =       4.421100\n\n\n         ---------------------------------------------------------\n                                   SCF\n               by Justin Turney, Rob Parrish, Andy Simmonett\n                          and Daniel G. A. Smith\n                              RKS Reference\n                       32 Threads, 190734 MiB Core\n         ---------------------------------------------------------\n\n  ==> Geometry <==\n\n    Molecular point group: c1\n    Full point group: C1\n\n    Geometry (in Bohr), charge = 0, multiplicity = 1:\n\n       Center              X                  Y                   Z               Mass       \n    ------------   -----------------  -----------------  -----------------  -----------------\n         C           -5.385731230939    -0.065129791956    -2.408510240614    12.000000000000\n         C           -9.333369107020    -0.392052411660    -0.082257380176    12.000000000000\n         C           -8.074811507465    -0.255992130627     2.149509173990    12.000000000000\n         C           -5.368723695810    -0.063240065830     2.039905058713    12.000000000000\n         C            2.486867807719     0.110614737712     2.011559166831    12.000000000000\n         C            2.496316438346     0.182424330479    -2.676851350429    12.000000000000\n         C            6.185061835240     0.091717476457    -0.679410835821    12.000000000000\n         C            5.168389179743     0.108725011586     1.765894770522    12.000000000000\n         C            9.155711304459    -0.055681161329     2.274231098270    12.000000000000\n         N           -8.042686163332    -0.284338022509    -2.304575303714    14.003074004430\n         N           -4.125283905258     0.048253775572    -0.176743686449    14.003074004430\n         N           -3.987333898100     0.008569526937     4.156398319226    14.003074004430\n         N            1.292560896429     0.159747616974    -0.369495751245    14.003074004430\n         N            4.998313828452     0.135181177343    -2.930074651241    14.003074004430\n         N            7.056225579076     0.018018157564     3.581921577087    14.003074004430\n         N            8.756979091988     0.006679800811    -0.316583419733    14.003074004430\n         N            1.026109512740     0.292028445756    -4.761219266809    14.003074004430\n         O           -4.359609944815    -0.010327734318    -4.515554870500    15.994914619570\n         O            1.188625959529     0.044474323321     3.978764063433    15.994914619570\n         H           -8.927077990047    -0.524333240442    -3.986431555372     1.007825032230\n         H          -11.362934965762    -0.622598998966    -0.210758756707     1.007825032230\n         H           -9.076366353958    -0.375044876531     3.927741458046     1.007825032230\n         H           -4.841490106807    -0.274889391882     5.840144297009     1.007825032230\n         H           -2.012570096996     0.027466788192     4.078919548082     1.007825032230\n         H           -0.684092630800     0.138960629594    -0.331701228736     1.007825032230\n         H           11.039768251541    -0.174733907232     3.052798261959     1.007825032230\n         H           10.064669570805    -0.193631168487    -1.697973217442     1.007825032230\n         H            1.921839696207     0.025577062066    -6.426067983338     1.007825032230\n         H           -0.912749491980     0.125732546715    -4.691299400168     1.007825032230\n\n  Running in c1 symmetry.\n\n  Rotational constants: A =      0.02936  B =      0.00676  C =      0.00550 [cm^-1]\n  Rotational constants: A =    880.10499  B =    202.52246  C =    164.76767 [MHz]\n  Nuclear repulsion = 1391.394659364626023\n\n  Charge       = 0\n  Multiplicity = 1\n  Electrons    = 136\n  Nalpha       = 68\n  Nbeta        = 68\n\n  ==> Algorithm <==\n\n  SCF Algorithm Type is DF.\n  DIIS enabled.\n  MOM disabled.\n  Fractional occupation disabled.\n  Guess Type is SAP.\n  Energy threshold   = 1.00e-06\n  Density threshold  = 1.00e-06\n  Integral threshold = 0.00e+00\n\n  ==> Primary Basis <==\n\n  Basis Set: DEF2-SVPD\n    Blend: DEF2-SVPD\n    Number of shells: 194\n    Number of basis function: 466\n    Number of Cartesian functions: 504\n    Spherical Harmonics?: true\n    Max angular momentum: 2\n\n  ==> DFT Potential <==\n\n   => Composite Functional: B3LYP-D3BJ <= \n\n    B3LYP-d3bj Hyb-GGA Exchange-Correlation Functional\n\n    P. J. Stephens, F. J. Devlin, C. F. Chabalowski, and M. J. Frisch, J. Phys. Chem. 98, 11623 (1994)\n\n    Deriv               =              1\n    GGA                 =           TRUE\n    Meta                =          FALSE\n\n    Exchange Hybrid     =           TRUE\n    MP2 Hybrid          =          FALSE\n\n   => Exchange Functionals <=\n\n    0.0800   Slater exchange\n    0.7200         Becke 88\n\n   => Exact (HF) Exchange <=\n\n    0.2000               HF \n\n   => Correlation Functionals <=\n\n    0.1900   Vosko, Wilk & Nusair (VWN5_RPA)\n    0.8100   Lee, Yang & Parr\n\n   => LibXC Density Thresholds  <==\n\n    XC_HYB_GGA_XC_B3LYP:  1.00E-32 \n\n   => Molecular Quadrature <=\n\n    Radial Scheme          =       TREUTLER\n    Pruning Scheme         =           NONE\n    Nuclear Scheme         =       TREUTLER\n\n    BS radius alpha        =              1\n    Pruning alpha          =              1\n    Radial Points          =             75\n    Spherical Points       =            302\n    Total Points           =         602805\n    Total Blocks           =           4367\n    Max Points             =            256\n    Max Functions          =            386\n    Weights Tolerance      =       1.00E-15\n\n   => Loading Basis Set <=\n\n    Name: (DEF2-SVPD AUX)\n    Role: JKFIT\n    Keyword: DF_BASIS_SCF\n    atoms 1-9   entry C          line   198 file /home/ubuntu/pk/Applications/miniconda3/envs/psi4-1.4a2.dev923/share/psi4/basis/def2-universal-jkfit.gbs \n    atoms 10-17 entry N          line   258 file /home/ubuntu/pk/Applications/miniconda3/envs/psi4-1.4a2.dev923/share/psi4/basis/def2-universal-jkfit.gbs \n    atoms 18-19 entry O          line   318 file /home/ubuntu/pk/Applications/miniconda3/envs/psi4-1.4a2.dev923/share/psi4/basis/def2-universal-jkfit.gbs \n    atoms 20-29 entry H          line    18 file /home/ubuntu/pk/Applications/miniconda3/envs/psi4-1.4a2.dev923/share/psi4/basis/def2-universal-jkfit.gbs \n\n  ==> Integral Setup <==\n\n  DFHelper Memory: AOs need 2.339 GiB; user supplied 134.769 GiB. Using in-core AOs.\n\n  ==> MemDFJK: Density-Fitted J/K Matrices <==\n\n    J tasked:                   Yes\n    K tasked:                   Yes\n    wK tasked:                   No\n    OpenMP threads:              32\n    Memory [MiB]:            138003\n    Algorithm:                 Core\n    Schwarz Cutoff:           1E-12\n    Mask sparsity (%):      15.4313\n    Fitting Condition:        1E-10\n\n   => Auxiliary Basis Set <=\n\n  Basis Set: (DEF2-SVPD AUX)\n    Blend: DEF2-UNIVERSAL-JKFIT\n    Number of shells: 535\n    Number of basis function: 1625\n    Number of Cartesian functions: 1931\n    Spherical Harmonics?: true\n    Max angular momentum: 4\n\n  Cached 100.0% of DFT collocation blocks in 4.929 [GiB].\n\n  Minimum eigenvalue in the overlap matrix is 1.8645031263E-05.\n  Reciprocal condition number of the overlap matrix is 1.5497320916E-06.\n    Using symmetric orthogonalization.\n\n  ==> Pre-Iterations <==\n\n  SCF Guess: Superposition of Atomic Potentials (doi:10.1021/acs.jctc.8b01089).\n\n  ==> SAP guess <==\n\n   => Molecular Quadrature <=\n\n    Radial Scheme          =       TREUTLER\n    Pruning Scheme         =           NONE\n    Nuclear Scheme         =       TREUTLER\n\n    BS radius alpha        =              1\n    Pruning alpha          =              1\n    Radial Points          =             75\n    Spherical Points       =            302\n    Total Points           =         602805\n    Total Blocks           =           4367\n    Max Points             =            256\n    Max Functions          =            386\n    Weights Tolerance      =       1.00E-15\n\n   -------------------------------------------------------\n    Irrep   Nso     Nmo     Nalpha   Nbeta   Ndocc  Nsocc\n   -------------------------------------------------------\n     A        466     466      68      68      68       0\n   -------------------------------------------------------\n    Total     466     466      68      68      68       0\n   -------------------------------------------------------\n\n  ==> Iterations <==\n\n                           Total Energy        Delta E     RMS |[F,P]|\n\n   @DF-RKS iter   1:  -931.15234777261946   -9.31152e+02   7.27553e-03 DIIS\n   @DF-RKS iter   2:  -882.67212169898539    4.84802e+01   1.74449e-02 DIIS\n   @DF-RKS iter   3:  -934.43661868823881   -5.17645e+01   4.43066e-03 DIIS\n   @DF-RKS iter   4:  -933.32789924926135    1.10872e+00   4.77673e-03 DIIS\n   @DF-RKS iter   5:  -936.27356453738605   -2.94567e+00   2.53012e-03 DIIS\n   @DF-RKS iter   6:  -936.91950288007752   -6.45938e-01   8.12841e-04 DIIS\n   @DF-RKS iter   7:  -936.95618643934165   -3.66836e-02   5.61333e-04 DIIS\n   @DF-RKS iter   8:  -936.98848581417133   -3.22994e-02   1.82548e-04 DIIS\n   @DF-RKS iter   9:  -936.99108872329657   -2.60291e-03   8.62184e-05 DIIS\n   @DF-RKS iter  10:  -936.99181646970146   -7.27746e-04   2.54052e-05 DIIS\n   @DF-RKS iter  11:  -936.99187075141742   -5.42817e-05   1.08336e-05 DIIS\n   @DF-RKS iter  12:  -936.99188189773247   -1.11463e-05   2.89963e-06 DIIS\n   @DF-RKS iter  13:  -936.99188264920804   -7.51476e-07   1.13953e-06 DIIS\n   @DF-RKS iter  14:  -936.99188275496817   -1.05760e-07   3.65954e-07 DIIS\n  Energy and wave function converged.\n\n\n  ==> Post-Iterations <==\n\n    Orbital Energies [Eh]\n    ---------------------\n\n    Doubly Occupied:                                                      \n\n       1A    -19.123399     2A    -19.104235     3A    -14.410321  \n       4A    -14.382868     5A    -14.360818     6A    -14.360710  \n       7A    -14.336996     8A    -14.336479     9A    -14.313297  \n      10A    -14.312956    11A    -10.334080    12A    -10.305383  \n      13A    -10.302023    14A    -10.288391    15A    -10.283860  \n      16A    -10.253386    17A    -10.244668    18A    -10.222781  \n      19A    -10.194242    20A     -1.059668    21A     -1.028284  \n      22A     -1.006810    23A     -0.985723    24A     -0.978547  \n      25A     -0.958063    26A     -0.888002    27A     -0.885303  \n      28A     -0.879973    29A     -0.858703    30A     -0.801875  \n      31A     -0.742672    32A     -0.687793    33A     -0.672599  \n      34A     -0.661063    35A     -0.640080    36A     -0.614230  \n      37A     -0.595234    38A     -0.588910    39A     -0.581437  \n      40A     -0.550787    41A     -0.534643    42A     -0.529007  \n      43A     -0.513481    44A     -0.497382    45A     -0.482254  \n      46A     -0.479159    47A     -0.471997    48A     -0.466704  \n      49A     -0.463575    50A     -0.448241    51A     -0.434589  \n      52A     -0.425316    53A     -0.419266    54A     -0.413068  \n      55A     -0.403911    56A     -0.383116    57A     -0.377528  \n      58A     -0.317292    59A     -0.304636    60A     -0.301405  \n      61A     -0.295117    62A     -0.279675    63A     -0.278411  \n      64A     -0.269381    65A     -0.269024    66A     -0.265523  \n      67A     -0.259012    68A     -0.201555  \n\n    Virtual:                                                              \n\n      69A     -0.065549    70A     -0.018633    71A     -0.010391  \n      72A     -0.007963    73A      0.004280    74A      0.018025  \n      75A      0.024019    76A      0.030207    77A      0.041969  \n      78A      0.044217    79A      0.052684    80A      0.059274  \n      81A      0.068716    82A      0.075936    83A      0.081315  \n      84A      0.092394    85A      0.101988    86A      0.104338  \n      87A      0.107126    88A      0.120880    89A      0.122718  \n      90A      0.128534    91A      0.130738    92A      0.133376  \n      93A      0.139246    94A      0.150029    95A      0.152041  \n      96A      0.164204    97A      0.166791    98A      0.169491  \n      99A      0.171293   100A      0.176977   101A      0.183465  \n     102A      0.193364   103A      0.195661   104A      0.198544  \n     105A      0.202371   106A      0.207209   107A      0.215593  \n     108A      0.220323   109A      0.223326   110A      0.224801  \n     111A      0.232391   112A      0.234509   113A      0.240533  \n     114A      0.242230   115A      0.246498   116A      0.252880  \n     117A      0.253890   118A      0.257379   119A      0.259947  \n     120A      0.266373   121A      0.276883   122A      0.279826  \n     123A      0.284213   124A      0.287588   125A      0.290968  \n     126A      0.297676   127A      0.298925   128A      0.301207  \n     129A      0.308476   130A      0.308809   131A      0.316257  \n     132A      0.320165   133A      0.321260   134A      0.325138  \n     135A      0.331986   136A      0.333728   137A      0.336064  \n     138A      0.338604   139A      0.344416   140A      0.350600  \n     141A      0.353193   142A      0.355934   143A      0.357630  \n     144A      0.359792   145A      0.362448   146A      0.365682  \n     147A      0.369938   148A      0.377022   149A      0.379813  \n     150A      0.382022   151A      0.388638   152A      0.392491  \n     153A      0.396646   154A      0.400440   155A      0.403086  \n     156A      0.409210   157A      0.411902   158A      0.416237  \n     159A      0.425083   160A      0.429583   161A      0.430897  \n     162A      0.434485   163A      0.442536   164A      0.451229  \n     165A      0.454087   166A      0.458153   167A      0.459214  \n     168A      0.461856   169A      0.468251   170A      0.470234  \n     171A      0.474045   172A      0.480764   173A      0.486369  \n     174A      0.487673   175A      0.493948   176A      0.508298  \n     177A      0.519840   178A      0.525017   179A      0.527240  \n     180A      0.538349   181A      0.546165   182A      0.552274  \n     183A      0.553243   184A      0.554907   185A      0.560473  \n     186A      0.569404   187A      0.572603   188A      0.575212  \n     189A      0.581583   190A      0.583188   191A      0.585856  \n     192A      0.589049   193A      0.596663   194A      0.605009  \n     195A      0.612585   196A      0.616807   197A      0.618806  \n     198A      0.624508   199A      0.628923   200A      0.636503  \n     201A      0.638523   202A      0.642303   203A      0.645627  \n     204A      0.649757   205A      0.659673   206A      0.662912  \n     207A      0.671775   208A      0.677929   209A      0.680028  \n     210A      0.682350   211A      0.686329   212A      0.696692  \n     213A      0.703719   214A      0.706455   215A      0.708514  \n     216A      0.713057   217A      0.719488   218A      0.726966  \n     219A      0.728114   220A      0.732434   221A      0.734260  \n     222A      0.738840   223A      0.745117   224A      0.747222  \n     225A      0.750297   226A      0.754558   227A      0.762843  \n     228A      0.771531   229A      0.772928   230A      0.776637  \n     231A      0.781158   232A      0.787625   233A      0.791317  \n     234A      0.794523   235A      0.795925   236A      0.806849  \n     237A      0.811840   238A      0.815154   239A      0.820887  \n     240A      0.825451   241A      0.832698   242A      0.842015  \n     243A      0.846077   244A      0.854216   245A      0.858657  \n     246A      0.865350   247A      0.870354   248A      0.881824  \n     249A      0.884150   250A      0.896852   251A      0.901858  \n     252A      0.912663   253A      0.921551   254A      0.923569  \n     255A      0.933995   256A      0.940972   257A      0.942232  \n     258A      0.954823   259A      0.964731   260A      0.974813  \n     261A      0.981123   262A      1.000634   263A      1.003483  \n     264A      1.023738   265A      1.035695   266A      1.042978  \n     267A      1.045322   268A      1.050213   269A      1.076023  \n     270A      1.079446   271A      1.089824   272A      1.101195  \n     273A      1.106076   274A      1.115882   275A      1.124040  \n     276A      1.129500   277A      1.145983   278A      1.149647  \n     279A      1.163854   280A      1.173978   281A      1.179120  \n     282A      1.185381   283A      1.194558   284A      1.203000  \n     285A      1.207447   286A      1.213885   287A      1.218047  \n     288A      1.229221   289A      1.235395   290A      1.237701  \n     291A      1.247465   292A      1.251171   293A      1.265338  \n     294A      1.277416   295A      1.282215   296A      1.291999  \n     297A      1.303554   298A      1.330556   299A      1.336688  \n     300A      1.354478   301A      1.375103   302A      1.386908  \n     303A      1.409142   304A      1.425611   305A      1.447094  \n     306A      1.465371   307A      1.466998   308A      1.485783  \n     309A      1.501507   310A      1.513192   311A      1.516704  \n     312A      1.531040   313A      1.541827   314A      1.551338  \n     315A      1.575929   316A      1.576863   317A      1.602817  \n     318A      1.612573   319A      1.626518   320A      1.632390  \n     321A      1.643705   322A      1.656010   323A      1.671285  \n     324A      1.684108   325A      1.697292   326A      1.706863  \n     327A      1.715161   328A      1.720596   329A      1.725987  \n     330A      1.734956   331A      1.745443   332A      1.759381  \n     333A      1.769015   334A      1.779518   335A      1.780771  \n     336A      1.784934   337A      1.790070   338A      1.795535  \n     339A      1.803478   340A      1.813142   341A      1.815612  \n     342A      1.825261   343A      1.829596   344A      1.833079  \n     345A      1.841012   346A      1.859371   347A      1.860774  \n     348A      1.862821   349A      1.882780   350A      1.900844  \n     351A      1.907368   352A      1.917970   353A      1.924255  \n     354A      1.926937   355A      1.934209   356A      1.934595  \n     357A      1.955052   358A      1.962171   359A      1.972934  \n     360A      1.981847   361A      1.986924   362A      2.011172  \n     363A      2.025538   364A      2.033755   365A      2.035497  \n     366A      2.042572   367A      2.057632   368A      2.065692  \n     369A      2.075648   370A      2.090775   371A      2.094666  \n     372A      2.104081   373A      2.105460   374A      2.111146  \n     375A      2.117914   376A      2.137338   377A      2.148779  \n     378A      2.158229   379A      2.162849   380A      2.175796  \n     381A      2.187952   382A      2.192330   383A      2.217695  \n     384A      2.223731   385A      2.233450   386A      2.263919  \n     387A      2.272024   388A      2.285459   389A      2.300619  \n     390A      2.324295   391A      2.336992   392A      2.343601  \n     393A      2.368319   394A      2.373873   395A      2.391676  \n     396A      2.396142   397A      2.421149   398A      2.437112  \n     399A      2.450673   400A      2.467830   401A      2.479658  \n     402A      2.493496   403A      2.494692   404A      2.532063  \n     405A      2.544127   406A      2.552901   407A      2.564625  \n     408A      2.579302   409A      2.586530   410A      2.604212  \n     411A      2.606676   412A      2.612322   413A      2.621906  \n     414A      2.638952   415A      2.654795   416A      2.675347  \n     417A      2.681520   418A      2.694658   419A      2.740626  \n     420A      2.754840   421A      2.784157   422A      2.788179  \n     423A      2.821244   424A      2.825506   425A      2.835540  \n     426A      2.843781   427A      2.861414   428A      2.865805  \n     429A      2.903624   430A      2.910381   431A      2.927851  \n     432A      2.965506   433A      2.970648   434A      2.989129  \n     435A      2.992354   436A      3.022373   437A      3.048822  \n     438A      3.083395   439A      3.098408   440A      3.111164  \n     441A      3.136129   442A      3.167892   443A      3.192050  \n     444A      3.199796   445A      3.205210   446A      3.208521  \n     447A      3.220586   448A      3.257224   449A      3.267061  \n     450A      3.279993   451A      3.312446   452A      3.348751  \n     453A      3.375060   454A      3.421826   455A      3.470044  \n     456A      3.502504   457A      3.523439   458A      3.566124  \n     459A      3.599007   460A      3.673911   461A      3.684464  \n     462A      3.707395   463A      3.730692   464A      3.756479  \n     465A      3.853320   466A      3.914496  \n\n    Final Occupation by Irrep:\n              A \n    DOCC [    68 ]\n\n  @DF-RKS Final Energy:  -936.99188275496817\n\n   => Energetics <=\n\n    Nuclear Repulsion Energy =           1391.3946593646260226\n    One-Electron Energy =               -4038.1671411299876127\n    Two-Electron Energy =                1810.9528921912872192\n    DFT Exchange-Correlation Energy =    -101.1130070308937547\n    Empirical Dispersion Energy =          -0.0592861500000000\n    VV10 Nonlocal Energy =                  0.0000000000000000\n    Total Energy =                       -936.9918827549681737\n\nComputation Completed\n\n\nProperties will be evaluated at   0.000000,   0.000000,   0.000000 [a0]\n\nProperties computed using the SCF density matrix\n\n  Nuclear Dipole Moment: [e a0]\n     X:    -7.3564      Y:    -0.9170      Z:    -0.2171\n\n  Electronic Dipole Moment: [e a0]\n     X:     5.0612      Y:     0.4456      Z:    -0.4209\n\n  Dipole Moment: [e a0]\n     X:    -2.2952      Y:    -0.4714      Z:    -0.6380     Total:     2.4285\n\n  Dipole Moment: [D]\n     X:    -5.8339      Y:    -1.1983      Z:    -1.6217     Total:     6.1725\n\n\n*** tstop() called on bignimbus at Mon May 17 03:41:36 2021\nModule time:\n\tuser time   =    1674.96 seconds =      27.92 minutes\n\tsystem time =      33.50 seconds =       0.56 minutes\n\ttotal time  =         73 seconds =       1.22 minutes\nTotal time:\n\tuser time   =    1674.96 seconds =      27.92 minutes\n\tsystem time =      33.50 seconds =       0.56 minutes\n\ttotal time  =         73 seconds =       1.22 minutes\n\n    Psi4 stopped on: Monday, 17 May 2021 03:41AM\n    Psi4 wall time for execution: 0:01:12.79\n\n*** Psi4 exiting successfully. Buy a developer a beer!\n",
 "stderr": null,
 "success": true,
 "error": null,
 "tag": "b3lyp-d3bj def2-svpd c3gc_a"
}