{
 "id": null,
 "schema_name": "qcschema_output",
 "schema_version": 1,
 "molecule": {
  "validated": true,
  "symbols": [
   "C",
   "C",
   "C",
   "C",
   "C",
   "N",
   "N",
   "N",
   "N",
   "N",
   "H",
   "H",
   "H",
   "H",
   "H"
  ],
  "geometry": [
   -2.6005148446510584,
   0.05786205884492528,
   -0.05834799091184591,
   -0.1816654040650379,
   -1.05140717679882,
   0.03991776761196013,
   1.8611285375548743,
   0.6342285271095628,
   0.08527119462294801,
   -0.6465380309276636,
   3.967705412417172,
   0.03235886311012896,
   3.108347780357041,
   -3.3625422282337434,
   0.004012971228262096,
   -2.7857080049459246,
   2.5976539714602467,
   -0.05267881253547342,
   1.7553038745292358,
   3.1645718090975947,
   0.09849927750115343,
   0.6309168298818281,
   -3.543955936277695,
   -0.011104837775400235,
   3.9719526196912684,
   -0.9002290867621937,
   0.08716092074840669,
   -4.769920436676645,
   -1.3273071911156629,
   -0.11126032242466495,
   -0.9092099623663019,
   6.004830175660711,
   0.019130780231924428,
   4.406589628546569,
   -4.938573816865572,
   -0.07157607379005133,
   5.787979426256241,
   -0.31630371399572466,
   -0.04700963415909916,
   -6.351621203684847,
   -0.38811330676312217,
   -0.6366041853019416,
   -4.6414190601455125,
   -3.160341532809756,
   -0.6403836375528572
  ],
  "name": "C5H5N5",
  "molecular_charge": 0.0,
  "molecular_multiplicity": 1,
  "masses": [
   12.0,
   12.0,
   12.0,
   12.0,
   12.0,
   14.00307400443,
   14.00307400443,
   14.00307400443,
   14.00307400443,
   14.00307400443,
   1.00782503223,
   1.00782503223,
   1.00782503223,
   1.00782503223,
   1.00782503223
  ],
  "real": [
   true,
   true,
   true,
   true,
   true,
   true,
   true,
   true,
   true,
   true,
   true,
   true,
   true,
   true,
   true
  ],
  "atom_labels": [
   "",
   "",
   "",
   "",
   "",
   "",
   "",
   "",
   "",
   "",
   "",
   "",
   "",
   "",
   ""
  ],
  "atomic_numbers": [
   6,
   6,
   6,
   6,
   6,
   7,
   7,
   7,
   7,
   7,
   1,
   1,
   1,
   1,
   1
  ],
  "mass_numbers": [
   12,
   12,
   12,
   12,
   12,
   14,
   14,
   14,
   14,
   14,
   1,
   1,
   1,
   1,
   1
  ],
  "fragments": [
   [
    0,
    1,
    2,
    3,
    4,
    5,
    6,
    7,
    8,
    9,
    10,
    11,
    12,
    13,
    14
   ]
  ],
  "fragment_charges": [
   0.0
  ],
  "fragment_multiplicities": [
   1
  ],
  "fix_com": false,
  "fix_orientation": false,
  "provenance": {
   "creator": "QCElemental",
   "version": "v0.19.0",
   "routine": "qcelemental.molparse.from_string"
  }
 },
 "driver": "energy",
 "model": {
  "method": "m062x-d3",
  "basis": "def2-svpd"
 },
 "keywords": {},
 "protocols": {},
 "extras": {
  "qcvars": {
   "2-BODY DISPERSION CORRECTION ENERGY": -0.00033434,
   "CURRENT DIPOLE X": 1.5798041063403998,
   "CURRENT DIPOLE Y": -1.874493648118567,
   "CURRENT DIPOLE Z": -0.9269294477065915,
   "CURRENT ENERGY": -466.82627859619555,
   "CURRENT REFERENCE ENERGY": -466.82627859619555,
   "DFT FUNCTIONAL TOTAL ENERGY": -466.82594425619556,
   "DFT TOTAL ENERGY": -466.82627859619555,
   "DFT VV10 ENERGY": 0.0,
   "DFT XC ENERGY": -30.546367379044977,
   "DISPERSION CORRECTION ENERGY": -0.00033434,
   "M06-2X-D3 DISPERSION CORRECTION ENERGY": -0.00033434,
   "NUCLEAR REPULSION ENERGY": 501.2235939031376,
   "ONE-ELECTRON ENERGY": -1625.271280486876,
   "PCM POLARIZATION ENERGY": 0.0,
   "PE ENERGY": 0.0,
   "SCF DIPOLE X": 1.5798041063403998,
   "SCF DIPOLE Y": -1.874493648118567,
   "SCF DIPOLE Z": -0.9269294477065915,
   "SCF ITERATION ENERGY": -466.82627859619555,
   "SCF ITERATIONS": 9.0,
   "SCF TOTAL ENERGY": -466.82627859619555,
   "TWO-ELECTRON ENERGY": 687.768109706588,
   "XC GRID RADIAL POINTS": 75.0,
   "XC GRID SPHERICAL POINTS": 302.0,
   "XC GRID TOTAL POINTS": 316516.0,
   "CURRENT DIPOLE": [
    0.6215427605544841,
    -0.7374825473725037,
    -0.36468210549305946
   ],
   "SCF DIPOLE": [
    0.6215427605544841,
    -0.7374825473725037,
    -0.36468210549305946
   ]
  }
 },
 "provenance": {
  "creator": "Psi4",
  "version": "1.4a2.dev923",
  "routine": "psi4.schema_runner.run_qcschema",
  "qcengine_version": "v0.17.0",
  "username": "ubuntu",
  "hostname": "bignimbus",
  "wall_time": 16.78536081314087,
  "memory": 64.0,
  "cpu": "AMD EPYC Processor (with IBPB)",
  "nthreads": 16
 },
 "properties": {
  "calcinfo_nbasis": 240,
  "calcinfo_nmo": 240,
  "calcinfo_nalpha": 35,
  "calcinfo_nbeta": 35,
  "calcinfo_natom": 15,
  "nuclear_repulsion_energy": 501.2235939031376,
  "return_energy": -466.82627859619555,
  "scf_one_electron_energy": -1625.271280486876,
  "scf_two_electron_energy": 687.768109706588,
  "scf_xc_energy": -30.546367379044977,
  "scf_dispersion_correction_energy": -0.00033434,
  "scf_dipole_moment": [
   0.6215427605544841,
   -0.7374825473725037,
   -0.36468210549305946
  ],
  "scf_total_energy": -466.82627859619555,
  "scf_iterations": 9
 },
 "wavefunction": null,
 "return_result": -466.82627859619555,
 "stdout": "\n    -----------------------------------------------------------------------\n          Psi4: An Open-Source Ab Initio Electronic Structure Package\n                               Psi4 1.4a2.dev923 \n\n                         Git: Rev {master} 5de566e \n\n\n    D. G. A. Smith, L. A. Burns, A. C. Simmonett, R. M. Parrish,\n    M. C. Schieber, R. Galvelis, P. Kraus, H. Kruse, R. Di Remigio,\n    A. Alenaizan, A. M. James, S. Lehtola, J. P. Misiewicz, M. Scheurer,\n    R. A. Shaw, J. B. Schriber, Y. Xie, Z. L. Glick, D. A. Sirianni,\n    J. S. O'Brien, J. M. Waldrop, A. Kumar, E. G. Hohenstein,\n    B. P. Pritchard, B. R. Brooks, H. F. Schaefer III, A. Yu. Sokolov,\n    K. Patkowski, A. E. DePrince III, U. Bozkaya, R. A. King,\n    F. A. Evangelista, J. M. Turney, T. D. Crawford, C. D. Sherrill,\n    J. Chem. Phys. 152(18) 184108 (2020). https://doi.org/10.1063/5.0006002\n\n                            Additional Code Authors\n    E. T. Seidl, C. L. Janssen, E. F. Valeev, M. L. Leininger,\n    J. F. Gonthier, R. M. Richard, H. R. McAlexander, M. Saitow, X. Wang,\n    P. Verma, and M. H. Lechner\n\n             Previous Authors, Complete List of Code Contributors,\n                       and Citations for Specific Modules\n    https://github.com/psi4/psi4/blob/master/codemeta.json\n    https://github.com/psi4/psi4/graphs/contributors\n    http://psicode.org/psi4manual/master/introduction.html#citing-psifour\n\n    -----------------------------------------------------------------------\n\n\n    Psi4 started on: Saturday, 24 April 2021 11:27AM\n\n    Process ID: 3771811\n    Host:       bignimbus\n    PSIDATADIR: /home/ubuntu/pk/Applications/miniconda3/envs/psi4-1.4a2.dev923/share/psi4\n    Memory:     59.6 GiB\n    Threads:    16\n    \n  ==> Input QCSchema <==\n\n--------------------------------------------------------------------------\n{'driver': 'energy',\n 'extras': {},\n 'id': None,\n 'keywords': {},\n 'model': {'basis': 'def2-svpd', 'method': 'm062x-d3'},\n 'molecule': {'atom_labels': ['', '', '', '', '', '', '', '', '', '', '', '', '', '', ''],\n              'atomic_numbers': [6, 6, 6, 6, 6, 7, 7, 7, 7, 7, 1, 1, 1, 1, 1],\n              'fix_com': False,\n              'fix_orientation': False,\n              'fragment_charges': [0.0],\n              'fragment_multiplicities': [1],\n              'fragments': [[0, 1, 2, 3, 4, 5, 6, 7, 8, 9, 10, 11, 12, 13, 14]],\n              'geometry': [-2.600514844651058, 0.0578620588449254, -0.05834799091184806, -0.1816654040650374,\n                           -1.0514071767988198, 0.03991776761195798, 1.8611285375548747, 0.6342285271095629,\n                           0.08527119462294586, -0.6465380309276632, 3.967705412417172, 0.03235886311012681,\n                           3.1083477803570414, -3.3625422282337434, 0.004012971228259943, -2.785708004945924,\n                           2.5976539714602467, -0.05267881253547557, 1.7553038745292362, 3.1645718090975947,\n                           0.09849927750115128, 0.6309168298818285, -3.543955936277695, -0.011104837775402387,\n                           3.971952619691269, -0.9002290867621936, 0.08716092074840454, -4.769920436676644,\n                           -1.3273071911156626, -0.1112603224246671, -0.9092099623663015, 6.004830175660711,\n                           0.019130780231922273, 4.40658962854657, -4.938573816865572, -0.07157607379005348,\n                           5.787979426256242, -0.31630371399572454, -0.04700963415910131, -6.3516212036848465,\n                           -0.38811330676312206, -0.6366041853019437, -4.641419060145512, -3.160341532809756,\n                           -0.6403836375528593],\n              'mass_numbers': [12, 12, 12, 12, 12, 14, 14, 14, 14, 14, 1, 1, 1, 1, 1],\n              'masses': [12.0, 12.0, 12.0, 12.0, 12.0, 14.00307400443, 14.00307400443, 14.00307400443, 14.00307400443,\n                         14.00307400443, 1.00782503223, 1.00782503223, 1.00782503223, 1.00782503223, 1.00782503223],\n              'molecular_charge': 0.0,\n              'molecular_multiplicity': 1,\n              'name': 'C5H5N5',\n              'provenance': {'creator': 'QCElemental',\n                             'routine': 'qcelemental.molparse.from_string',\n                             'version': 'v0.19.0'},\n              'real': [True, True, True, True, True, True, True, True, True, True, True, True, True, True, True],\n              'symbols': ['C', 'C', 'C', 'C', 'C', 'N', 'N', 'N', 'N', 'N', 'H', 'H', 'H', 'H', 'H'],\n              'validated': True},\n 'protocols': {},\n 'provenance': {'creator': 'QCElemental', 'routine': 'qcelemental.models.results', 'version': 'v0.17.0'},\n 'schema_name': 'qcschema_input',\n 'schema_version': 1}\n--------------------------------------------------------------------------\n\nScratch directory: /tmp/tmp17pjtgzs_psi_scratch/\n\n*** tstart() called on bignimbus\n*** at Sat Apr 24 11:27:43 2021\n\n   => Loading Basis Set <=\n\n    Name: DEF2-SVPD\n    Role: ORBITAL\n    Keyword: BASIS\n    atoms 1-5   entry C          line   101 file /home/ubuntu/pk/Applications/miniconda3/envs/psi4-1.4a2.dev923/share/psi4/basis/def2-svpd.gbs \n    atoms 6-10  entry N          line   125 file /home/ubuntu/pk/Applications/miniconda3/envs/psi4-1.4a2.dev923/share/psi4/basis/def2-svpd.gbs \n    atoms 11-15 entry H          line    14 file /home/ubuntu/pk/Applications/miniconda3/envs/psi4-1.4a2.dev923/share/psi4/basis/def2-svpd.gbs \n\n   => M06-2X-D3: Empirical Dispersion <=\n\n    Grimme's -D3 (zero-damping) Dispersion Correction\n    Grimme S.; Antony J.; Ehrlich S.; Krieg H. (2010), J. Chem. Phys., 132: 154104\n    Parametrisation from:    L. Goerigk, S. Grimme, Phys. Chem. Chem. Phys. 13, 6670-6688, 2011\n\n        s6 =       1.000000\n        s8 =       0.000000\n       sr6 =       1.619000\n    alpha6 =      14.000000\n       sr8 =       1.000000\n\n\n         ---------------------------------------------------------\n                                   SCF\n               by Justin Turney, Rob Parrish, Andy Simmonett\n                          and Daniel G. A. Smith\n                              RKS Reference\n                       16 Threads,  61035 MiB Core\n         ---------------------------------------------------------\n\n  ==> Geometry <==\n\n    Molecular point group: c1\n    Full point group: C1\n\n    Geometry (in Bohr), charge = 0, multiplicity = 1:\n\n       Center              X                  Y                   Z               Mass       \n    ------------   -----------------  -----------------  -----------------  -----------------\n         C           -2.600514844651     0.057862058845    -0.058347990912    12.000000000000\n         C           -0.181665404065    -1.051407176799     0.039917767612    12.000000000000\n         C            1.861128537555     0.634228527110     0.085271194623    12.000000000000\n         C           -0.646538030928     3.967705412417     0.032358863110    12.000000000000\n         C            3.108347780357    -3.362542228234     0.004012971228    12.000000000000\n         N           -2.785708004946     2.597653971460    -0.052678812535    14.003074004430\n         N            1.755303874529     3.164571809098     0.098499277501    14.003074004430\n         N            0.630916829882    -3.543955936278    -0.011104837775    14.003074004430\n         N            3.971952619691    -0.900229086762     0.087160920748    14.003074004430\n         N           -4.769920436677    -1.327307191116    -0.111260322425    14.003074004430\n         H           -0.909209962366     6.004830175661     0.019130780232     1.007825032230\n         H            4.406589628547    -4.938573816866    -0.071576073790     1.007825032230\n         H            5.787979426256    -0.316303713996    -0.047009634159     1.007825032230\n         H           -6.351621203685    -0.388113306763    -0.636604185302     1.007825032230\n         H           -4.641419060146    -3.160341532810    -0.640383637553     1.007825032230\n\n  Running in c1 symmetry.\n\n  Rotational constants: A =      0.07881  B =      0.05206  C =      0.03137 [cm^-1]\n  Rotational constants: A =   2362.65971  B =   1560.84141  C =    940.48329 [MHz]\n  Nuclear repulsion =  501.223593903137612\n\n  Charge       = 0\n  Multiplicity = 1\n  Electrons    = 70\n  Nalpha       = 35\n  Nbeta        = 35\n\n  ==> Algorithm <==\n\n  SCF Algorithm Type is DF.\n  DIIS enabled.\n  MOM disabled.\n  Fractional occupation disabled.\n  Guess Type is SAD.\n  Energy threshold   = 1.00e-06\n  Density threshold  = 1.00e-06\n  Integral threshold = 0.00e+00\n\n  ==> Primary Basis <==\n\n  Basis Set: DEF2-SVPD\n    Blend: DEF2-SVPD\n    Number of shells: 100\n    Number of basis function: 240\n    Number of Cartesian functions: 260\n    Spherical Harmonics?: true\n    Max angular momentum: 2\n\n  ==> DFT Potential <==\n\n   => Composite Functional: M06-2X-D3ZERO <= \n\n    Hybrid M06-2X Meta-GGA XC Functional\n\n    Y. Zhao and D. G. Truhlar,  Theor. Chem. Acc., 120, 215, 2008\n\n\n    Deriv               =              1\n    GGA                 =           TRUE\n    Meta                =           TRUE\n\n    Exchange Hybrid     =           TRUE\n    MP2 Hybrid          =          FALSE\n\n   => Exchange Functionals <=\n\n    1.0000   XC_HYB_MGGA_X_M06_2X\n\n   => Exact (HF) Exchange <=\n\n    0.5400               HF \n\n   => Correlation Functionals <=\n\n    1.0000   XC_MGGA_C_M06_2X\n\n   => LibXC Density Thresholds  <==\n\n    XC_MGGA_C_M06_2X:  1.00E-23 \n    XC_HYB_MGGA_X_M06_2X:  1.00E-20 \n\n   => Molecular Quadrature <=\n\n    Radial Scheme          =       TREUTLER\n    Pruning Scheme         =           NONE\n    Nuclear Scheme         =       TREUTLER\n\n    BS radius alpha        =              1\n    Pruning alpha          =              1\n    Radial Points          =             75\n    Spherical Points       =            302\n    Total Points           =         316516\n    Total Blocks           =           2365\n    Max Points             =            256\n    Max Functions          =            233\n    Weights Tolerance      =       1.00E-15\n\n   => Loading Basis Set <=\n\n    Name: (DEF2-SVPD AUX)\n    Role: JKFIT\n    Keyword: DF_BASIS_SCF\n    atoms 1-5   entry C          line   198 file /home/ubuntu/pk/Applications/miniconda3/envs/psi4-1.4a2.dev923/share/psi4/basis/def2-universal-jkfit.gbs \n    atoms 6-10  entry N          line   258 file /home/ubuntu/pk/Applications/miniconda3/envs/psi4-1.4a2.dev923/share/psi4/basis/def2-universal-jkfit.gbs \n    atoms 11-15 entry H          line    18 file /home/ubuntu/pk/Applications/miniconda3/envs/psi4-1.4a2.dev923/share/psi4/basis/def2-universal-jkfit.gbs \n\n  ==> Integral Setup <==\n\n  DFHelper Memory: AOs need 0.377 GiB; user supplied 40.380 GiB. Using in-core AOs.\n\n  ==> MemDFJK: Density-Fitted J/K Matrices <==\n\n    J tasked:                   Yes\n    K tasked:                   Yes\n    wK tasked:                   No\n    OpenMP threads:              16\n    Memory [MiB]:             41349\n    Algorithm:                 Core\n    Schwarz Cutoff:           1E-12\n    Mask sparsity (%):       3.0486\n    Fitting Condition:        1E-10\n\n   => Auxiliary Basis Set <=\n\n  Basis Set: (DEF2-SVPD AUX)\n    Blend: DEF2-UNIVERSAL-JKFIT\n    Number of shells: 280\n    Number of basis function: 850\n    Number of Cartesian functions: 1010\n    Spherical Harmonics?: true\n    Max angular momentum: 4\n\n  Cached 100.0% of DFT collocation blocks in 4.323 [GiB].\n\n  Minimum eigenvalue in the overlap matrix is 4.4162638354E-05.\n  Reciprocal condition number of the overlap matrix is 3.8276336757E-06.\n    Using symmetric orthogonalization.\n\n  ==> Pre-Iterations <==\n\n  SCF Guess: Superposition of Atomic Densities via on-the-fly atomic UHF (no occupation information).\n\n   -------------------------\n    Irrep   Nso     Nmo    \n   -------------------------\n     A        240     240 \n   -------------------------\n    Total     240     240\n   -------------------------\n\n  ==> Iterations <==\n\n                           Total Energy        Delta E     RMS |[F,P]|\n\n   @DF-RKS iter SAD:  -466.87517683904753   -4.66875e+02   0.00000e+00 \n   @DF-RKS iter   1:  -466.54936933862120    3.25808e-01   3.13575e-03 DIIS\n   @DF-RKS iter   2:  -466.59272029846983   -4.33510e-02   3.01098e-03 DIIS\n   @DF-RKS iter   3:  -466.81900152545234   -2.26281e-01   5.18619e-04 DIIS\n   @DF-RKS iter   4:  -466.82520188385178   -6.20036e-03   2.02165e-04 DIIS\n   @DF-RKS iter   5:  -466.82617069203826   -9.68808e-04   6.22733e-05 DIIS\n   @DF-RKS iter   6:  -466.82626849201000   -9.78000e-05   1.75060e-05 DIIS\n   @DF-RKS iter   7:  -466.82627720757318   -8.71556e-06   6.65128e-06 DIIS\n   @DF-RKS iter   8:  -466.82627839832418   -1.19075e-06   2.10184e-06 DIIS\n   @DF-RKS iter   9:  -466.82627859619555   -1.97871e-07   8.74614e-07 DIIS\n  Energy and wave function converged.\n\n\n  ==> Post-Iterations <==\n\n    Orbital Energies [Eh]\n    ---------------------\n\n    Doubly Occupied:                                                      \n\n       1A    -14.833946     2A    -14.787049     3A    -14.770964  \n       4A    -14.763322     5A    -14.757448     6A    -10.650033  \n       7A    -10.641241     8A    -10.634926     9A    -10.622901  \n      10A    -10.586900    11A     -1.144897    12A     -1.083128  \n      13A     -1.036928    14A     -0.985790    15A     -0.952860  \n      16A     -0.858383    17A     -0.752595    18A     -0.736025  \n      19A     -0.713267    20A     -0.662146    21A     -0.627047  \n      22A     -0.589367    23A     -0.573370    24A     -0.551837  \n      25A     -0.533621    26A     -0.513274    27A     -0.492730  \n      28A     -0.482312    29A     -0.433223    30A     -0.396242  \n      31A     -0.365623    32A     -0.361004    33A     -0.330361  \n      34A     -0.326457    35A     -0.281337  \n\n    Virtual:                                                              \n\n      36A     -0.001369    37A      0.028681    38A      0.029666  \n      39A      0.050290    40A      0.065191    41A      0.066887  \n      42A      0.074444    43A      0.083312    44A      0.112532  \n      45A      0.127179    46A      0.144847    47A      0.147676  \n      48A      0.163611    49A      0.175465    50A      0.185592  \n      51A      0.190473    52A      0.201338    53A      0.205590  \n      54A      0.212707    55A      0.213672    56A      0.231223  \n      57A      0.244654    58A      0.251505    59A      0.270433  \n      60A      0.272402    61A      0.274697    62A      0.290195  \n      63A      0.295128    64A      0.300009    65A      0.306864  \n      66A      0.311033    67A      0.317730    68A      0.323523  \n      69A      0.328034    70A      0.333850    71A      0.342228  \n      72A      0.347834    73A      0.358424    74A      0.365508  \n      75A      0.374618    76A      0.379372    77A      0.383375  \n      78A      0.386939    79A      0.388724    80A      0.395946  \n      81A      0.402088    82A      0.414007    83A      0.425099  \n      84A      0.434707    85A      0.439133    86A      0.446025  \n      87A      0.453301    88A      0.465516    89A      0.476023  \n      90A      0.483600    91A      0.493016    92A      0.497513  \n      93A      0.512690    94A      0.515541    95A      0.528986  \n      96A      0.557727    97A      0.562069    98A      0.575430  \n      99A      0.580656   100A      0.589569   101A      0.604317  \n     102A      0.625796   103A      0.629401   104A      0.630510  \n     105A      0.640550   106A      0.643411   107A      0.658095  \n     108A      0.669711   109A      0.677812   110A      0.679205  \n     111A      0.688046   112A      0.697581   113A      0.710678  \n     114A      0.721631   115A      0.730122   116A      0.743122  \n     117A      0.752631   118A      0.755702   119A      0.765928  \n     120A      0.775314   121A      0.788836   122A      0.794107  \n     123A      0.799609   124A      0.818212   125A      0.830257  \n     126A      0.843103   127A      0.862382   128A      0.865788  \n     129A      0.876012   130A      0.899768   131A      0.916507  \n     132A      0.937573   133A      0.947186   134A      0.972933  \n     135A      1.000560   136A      1.028645   137A      1.036726  \n     138A      1.053549   139A      1.079713   140A      1.084807  \n     141A      1.115518   142A      1.133344   143A      1.145781  \n     144A      1.167473   145A      1.181437   146A      1.198314  \n     147A      1.220375   148A      1.228152   149A      1.229303  \n     150A      1.239317   151A      1.250950   152A      1.278143  \n     153A      1.288403   154A      1.311054   155A      1.325862  \n     156A      1.336042   157A      1.345254   158A      1.382285  \n     159A      1.424074   160A      1.465926   161A      1.492314  \n     162A      1.544031   163A      1.574005   164A      1.586086  \n     165A      1.596841   166A      1.619535   167A      1.625307  \n     168A      1.630680   169A      1.654865   170A      1.674873  \n     171A      1.716154   172A      1.727165   173A      1.734057  \n     174A      1.750961   175A      1.774490   176A      1.804244  \n     177A      1.808918   178A      1.838561   179A      1.840597  \n     180A      1.848451   181A      1.856296   182A      1.875470  \n     183A      1.899062   184A      1.915442   185A      1.922719  \n     186A      1.941495   187A      1.959323   188A      1.995940  \n     189A      2.005984   190A      2.029726   191A      2.048045  \n     192A      2.085569   193A      2.110173   194A      2.114561  \n     195A      2.125534   196A      2.133974   197A      2.150575  \n     198A      2.164147   199A      2.173952   200A      2.193777  \n     201A      2.221459   202A      2.259122   203A      2.296934  \n     204A      2.324927   205A      2.370861   206A      2.392467  \n     207A      2.414480   208A      2.450333   209A      2.496330  \n     210A      2.531587   211A      2.551203   212A      2.602818  \n     213A      2.615884   214A      2.627726   215A      2.654326  \n     216A      2.675277   217A      2.696893   218A      2.768076  \n     219A      2.804376   220A      2.826089   221A      2.844225  \n     222A      2.868542   223A      2.890041   224A      2.920871  \n     225A      2.964154   226A      3.016677   227A      3.061954  \n     228A      3.122993   229A      3.153307   230A      3.173367  \n     231A      3.244460   232A      3.278290   233A      3.281811  \n     234A      3.334580   235A      3.418326   236A      3.449836  \n     237A      3.475616   238A      3.640554   239A      3.683913  \n     240A      3.733235  \n\n    Final Occupation by Irrep:\n              A \n    DOCC [    35 ]\n\n  @DF-RKS Final Energy:  -466.82627859619555\n\n   => Energetics <=\n\n    Nuclear Repulsion Energy =            501.2235939031376120\n    One-Electron Energy =               -1625.2712804868760941\n    Two-Electron Energy =                 687.7681097065880067\n    DFT Exchange-Correlation Energy =     -30.5463673790449768\n    Empirical Dispersion Energy =          -0.0003343400000000\n    VV10 Nonlocal Energy =                  0.0000000000000000\n    Total Energy =                       -466.8262785961955501\n\nComputation Completed\n\n\nProperties will be evaluated at   0.000000,   0.000000,   0.000000 [a0]\n\nProperties computed using the SCF density matrix\n\n  Nuclear Dipole Moment: [e a0]\n     X:    -0.8453      Y:    -1.3883      Z:    -0.6829\n\n  Electronic Dipole Moment: [e a0]\n     X:     1.4669      Y:     0.6508      Z:     0.3182\n\n  Dipole Moment: [e a0]\n     X:     0.6215      Y:    -0.7375      Z:    -0.3647     Total:     1.0311\n\n  Dipole Moment: [D]\n     X:     1.5798      Y:    -1.8745      Z:    -0.9269     Total:     2.6208\n\n\n*** tstop() called on bignimbus at Sat Apr 24 11:27:55 2021\nModule time:\n\tuser time   =     133.24 seconds =       2.22 minutes\n\tsystem time =       8.73 seconds =       0.15 minutes\n\ttotal time  =         12 seconds =       0.20 minutes\nTotal time:\n\tuser time   =     133.24 seconds =       2.22 minutes\n\tsystem time =       8.73 seconds =       0.15 minutes\n\ttotal time  =         12 seconds =       0.20 minutes\n\n    Psi4 stopped on: Saturday, 24 April 2021 11:27AM\n    Psi4 wall time for execution: 0:00:12.13\n\n*** Psi4 exiting successfully. Buy a developer a beer!\n",
 "stderr": null,
 "success": true,
 "error": null,
 "tag": "m062x-d3 def2-svpd c3a_a"
}