{
 "id": null,
 "schema_name": "qcschema_output",
 "schema_version": 1,
 "molecule": {
  "validated": true,
  "symbols": [
   "N",
   "C",
   "N",
   "C",
   "C",
   "O",
   "N",
   "C",
   "N",
   "N",
   "C",
   "H",
   "H",
   "H",
   "H",
   "H"
  ],
  "geometry": [
   1.9795091944628953,
   2.1064834459358144,
   -3.2710258001379717,
   3.442157215567254,
   0.044792243061322456,
   -3.8587306251553546,
   3.037755824719278,
   -1.9205229274148177,
   -2.447105209438357,
   1.132911890257787,
   -1.157073572729854,
   -0.8011537541645827,
   -0.012262141769655687,
   -2.415631172284768,
   1.2151840216989083,
   0.2787556815508495,
   -4.558580598553946,
   1.9767436502584184,
   -1.7942738780763894,
   -0.8301509530256518,
   2.4756313473792826,
   -2.3895376075956043,
   1.6208238316931525,
   1.8860367962364304,
   -4.060055502500323,
   2.879381431248068,
   3.327897829960767,
   -1.346408786342883,
   2.818910195233415,
   -0.06605029136148673,
   0.4469413067165973,
   1.3279162822471884,
   -1.2830339161563362,
   1.9190379584482442,
   3.80723695884786,
   -4.140299817848581,
   -2.720239679550724,
   -1.6994249707362516,
   3.9722944387418746,
   4.817877834900553,
   0.1317196448323844,
   -5.370511525521616,
   -4.434221275340973,
   4.678400702683921,
   2.8233409544635233,
   -4.866968558070816,
   2.102703993684897,
   4.9095985969689675
  ],
  "name": "C5H5N5O",
  "molecular_charge": 0.0,
  "molecular_multiplicity": 1,
  "masses": [
   14.00307400443,
   12.0,
   14.00307400443,
   12.0,
   12.0,
   15.99491461957,
   14.00307400443,
   12.0,
   14.00307400443,
   14.00307400443,
   12.0,
   1.00782503223,
   1.00782503223,
   1.00782503223,
   1.00782503223,
   1.00782503223
  ],
  "real": [
   true,
   true,
   true,
   true,
   true,
   true,
   true,
   true,
   true,
   true,
   true,
   true,
   true,
   true,
   true,
   true
  ],
  "atom_labels": [
   "",
   "",
   "",
   "",
   "",
   "",
   "",
   "",
   "",
   "",
   "",
   "",
   "",
   "",
   "",
   ""
  ],
  "atomic_numbers": [
   7,
   6,
   7,
   6,
   6,
   8,
   7,
   6,
   7,
   7,
   6,
   1,
   1,
   1,
   1,
   1
  ],
  "mass_numbers": [
   14,
   12,
   14,
   12,
   12,
   16,
   14,
   12,
   14,
   14,
   12,
   1,
   1,
   1,
   1,
   1
  ],
  "fragments": [
   [
    0,
    1,
    2,
    3,
    4,
    5,
    6,
    7,
    8,
    9,
    10,
    11,
    12,
    13,
    14,
    15
   ]
  ],
  "fragment_charges": [
   0.0
  ],
  "fragment_multiplicities": [
   1
  ],
  "fix_com": false,
  "fix_orientation": false,
  "provenance": {
   "creator": "QCElemental",
   "version": "v0.19.0",
   "routine": "qcelemental.molparse.from_string"
  }
 },
 "driver": "energy",
 "model": {
  "method": "b97m-v",
  "basis": "pcseg-3"
 },
 "keywords": {},
 "protocols": {},
 "extras": {
  "qcvars": {
   "CURRENT DIPOLE X": -3.20059433766176,
   "CURRENT DIPOLE Y": 6.108847681388009,
   "CURRENT DIPOLE Z": 0.8694902455846429,
   "CURRENT ENERGY": -542.7444326589467,
   "CURRENT REFERENCE ENERGY": -542.7444326589467,
   "DFT FUNCTIONAL TOTAL ENERGY": -542.7444326589467,
   "DFT TOTAL ENERGY": -542.7444326589467,
   "DFT VV10 ENERGY": 0.2979497369612115,
   "DFT XC ENERGY": -72.53089093389966,
   "NUCLEAR REPULSION ENERGY": 594.6969861901529,
   "ONE-ELECTRON ENERGY": -1916.4750715416515,
   "PCM POLARIZATION ENERGY": 0.0,
   "PE ENERGY": 0.0,
   "SCF DIPOLE X": -3.20059433766176,
   "SCF DIPOLE Y": 6.108847681388009,
   "SCF DIPOLE Z": 0.8694902455846429,
   "SCF ITERATION ENERGY": -542.7444326589467,
   "SCF ITERATIONS": 11.0,
   "SCF TOTAL ENERGY": -542.7444326589467,
   "TWO-ELECTRON ENERGY": 851.2665938894904,
   "XC GRID RADIAL POINTS": 75.0,
   "XC GRID SPHERICAL POINTS": 302.0,
   "XC GRID TOTAL POINTS": 338290.0,
   "CURRENT DIPOLE": [
    -1.2592107034419278,
    2.4034056098842953,
    0.3420837845318463
   ],
   "SCF DIPOLE": [
    -1.2592107034419278,
    2.4034056098842953,
    0.3420837845318463
   ]
  }
 },
 "provenance": {
  "creator": "Psi4",
  "version": "1.4a2.dev923",
  "routine": "psi4.schema_runner.run_qcschema",
  "wall_time": 155.14446759223938,
  "hostname": "z136",
  "cpu": "Intel(R) Xeon(R) CPU E5-2620 v4 @ 2.10GHz",
  "memory": 800.0,
  "username": "kraus",
  "nthreads": 16,
  "qcengine_version": "v0.16.0"
 },
 "properties": {
  "calcinfo_nbasis": 825,
  "calcinfo_nmo": 825,
  "calcinfo_nalpha": 39,
  "calcinfo_nbeta": 39,
  "calcinfo_natom": 16,
  "nuclear_repulsion_energy": 594.6969861901529,
  "return_energy": -542.7444326589467,
  "scf_one_electron_energy": -1916.4750715416515,
  "scf_two_electron_energy": 851.2665938894904,
  "scf_vv10_energy": 0.2979497369612115,
  "scf_xc_energy": -72.53089093389966,
  "scf_dipole_moment": [
   -1.2592107034419278,
   2.4034056098842953,
   0.3420837845318463
  ],
  "scf_total_energy": -542.7444326589467,
  "scf_iterations": 11
 },
 "wavefunction": null,
 "return_result": -542.7444326589467,
 "stdout": "\n    -----------------------------------------------------------------------\n          Psi4: An Open-Source Ab Initio Electronic Structure Package\n                               Psi4 1.4a2.dev923 \n\n                         Git: Rev {master} 5de566e \n\n\n    D. G. A. Smith, L. A. Burns, A. C. Simmonett, R. M. Parrish,\n    M. C. Schieber, R. Galvelis, P. Kraus, H. Kruse, R. Di Remigio,\n    A. Alenaizan, A. M. James, S. Lehtola, J. P. Misiewicz, M. Scheurer,\n    R. A. Shaw, J. B. Schriber, Y. Xie, Z. L. Glick, D. A. Sirianni,\n    J. S. O'Brien, J. M. Waldrop, A. Kumar, E. G. Hohenstein,\n    B. P. Pritchard, B. R. Brooks, H. F. Schaefer III, A. Yu. Sokolov,\n    K. Patkowski, A. E. DePrince III, U. Bozkaya, R. A. King,\n    F. A. Evangelista, J. M. Turney, T. D. Crawford, C. D. Sherrill,\n    J. Chem. Phys. 152(18) 184108 (2020). https://doi.org/10.1063/5.0006002\n\n                            Additional Code Authors\n    E. T. Seidl, C. L. Janssen, E. F. Valeev, M. L. Leininger,\n    J. F. Gonthier, R. M. Richard, H. R. McAlexander, M. Saitow, X. Wang,\n    P. Verma, and M. H. Lechner\n\n             Previous Authors, Complete List of Code Contributors,\n                       and Citations for Specific Modules\n    https://github.com/psi4/psi4/blob/master/codemeta.json\n    https://github.com/psi4/psi4/graphs/contributors\n    http://psicode.org/psi4manual/master/introduction.html#citing-psifour\n\n    -----------------------------------------------------------------------\n\n\n    Psi4 started on: Sunday, 25 April 2021 02:04PM\n\n    Process ID: 5834\n    Host:       z136\n    PSIDATADIR: /group/f97/kraus/miniconda3/envs/psi4-1.4a2.dev923/share/psi4\n    Memory:     745.1 GiB\n    Threads:    16\n    \n  ==> Input QCSchema <==\n\n--------------------------------------------------------------------------\n{'driver': 'energy',\n 'extras': {},\n 'id': None,\n 'keywords': {},\n 'model': {'basis': 'pcseg-3', 'method': 'b97m-v'},\n 'molecule': {'atom_labels': ['', '', '', '', '', '', '', '', '', '', '', '', '', '', '', ''],\n              'atomic_numbers': [7, 6, 7, 6, 6, 8, 7, 6, 7, 7, 6, 1, 1, 1, 1, 1],\n              'fix_com': False,\n              'fix_orientation': False,\n              'fragment_charges': [0.0],\n              'fragment_multiplicities': [1],\n              'fragments': [[0, 1, 2, 3, 4, 5, 6, 7, 8, 9, 10, 11, 12, 13, 14, 15]],\n              'geometry': [1.9795091944628904, 2.10648344593581, -3.2710258001380055, 3.4421572155672493,\n                           0.044792243061317905, -3.8587306251553883, 3.037755824719273, -1.9205229274148223,\n                           -2.4471052094383907, 1.1329118902577822, -1.1570735727298587, -0.8011537541646163,\n                           -0.012262141769660673, -2.4156311722847725, 1.2151840216988745, 0.2787556815508445,\n                           -4.5585805985539505, 1.9767436502583846, -1.7942738780763943, -0.8301509530256563,\n                           2.475631347379249, -2.389537607595609, 1.6208238316931478, 1.8860367962363966,\n                           -4.060055502500329, 2.8793814312480634, 3.327897829960733, -1.346408786342888,\n                           2.8189101952334106, -0.06605029136152041, 0.4469413067165923, 1.3279162822471837,\n                           -1.28303391615637, 1.9190379584482393, 3.8072369588478554, -4.140299817848614,\n                           -2.720239679550729, -1.6994249707362563, 3.972294438741841, 4.817877834900548,\n                           0.13171964483237986, -5.37051152552165, -4.434221275340978, 4.678400702683916,\n                           2.8233409544634895, -4.8669685580708215, 2.1027039936848926, 4.909598596968934],\n              'mass_numbers': [14, 12, 14, 12, 12, 16, 14, 12, 14, 14, 12, 1, 1, 1, 1, 1],\n              'masses': [14.00307400443, 12.0, 14.00307400443, 12.0, 12.0, 15.99491461957, 14.00307400443, 12.0,\n                         14.00307400443, 14.00307400443, 12.0, 1.00782503223, 1.00782503223, 1.00782503223,\n                         1.00782503223, 1.00782503223],\n              'molecular_charge': 0.0,\n              'molecular_multiplicity': 1,\n              'name': 'C5H5N5O',\n              'provenance': {'creator': 'QCElemental',\n                             'routine': 'qcelemental.molparse.from_string',\n                             'version': 'v0.19.0'},\n              'real': [True, True, True, True, True, True, True, True, True, True, True, True, True, True, True, True],\n              'symbols': ['N', 'C', 'N', 'C', 'C', 'O', 'N', 'C', 'N', 'N', 'C', 'H', 'H', 'H', 'H', 'H'],\n              'validated': True},\n 'protocols': {},\n 'provenance': {'creator': 'QCElemental', 'routine': 'qcelemental.models.results', 'version': 'v0.16.0'},\n 'schema_name': 'qcschema_input',\n 'schema_version': 1}\n--------------------------------------------------------------------------\n\nScratch directory: /scratch/f97/kraus/scratch/tmpjlb6ihg5_psi_scratch/\n\n*** tstart() called on z136\n*** at Sun Apr 25 14:04:57 2021\n\n   => Loading Basis Set <=\n\n    Name: PCSEG-3\n    Role: ORBITAL\n    Keyword: BASIS\n    atoms 1, 3, 7, 9-10 entry N          line   243 file /group/f97/kraus/miniconda3/envs/psi4-1.4a2.dev923/share/psi4/basis/pcseg-3.gbs \n    atoms 2, 4-5, 8, 11 entry C          line   194 file /group/f97/kraus/miniconda3/envs/psi4-1.4a2.dev923/share/psi4/basis/pcseg-3.gbs \n    atoms 6             entry O          line   292 file /group/f97/kraus/miniconda3/envs/psi4-1.4a2.dev923/share/psi4/basis/pcseg-3.gbs \n    atoms 12-16         entry H          line    13 file /group/f97/kraus/miniconda3/envs/psi4-1.4a2.dev923/share/psi4/basis/pcseg-3.gbs \n\n\n         ---------------------------------------------------------\n                                   SCF\n               by Justin Turney, Rob Parrish, Andy Simmonett\n                          and Daniel G. A. Smith\n                              RKS Reference\n                       16 Threads, 762939 MiB Core\n         ---------------------------------------------------------\n\n  ==> Geometry <==\n\n    Molecular point group: c1\n    Full point group: C1\n\n    Geometry (in Bohr), charge = 0, multiplicity = 1:\n\n       Center              X                  Y                   Z               Mass       \n    ------------   -----------------  -----------------  -----------------  -----------------\n         N            1.979509194463     2.106483445936    -3.271025800138    14.003074004430\n         C            3.442157215567     0.044792243061    -3.858730625155    12.000000000000\n         N            3.037755824719    -1.920522927415    -2.447105209438    14.003074004430\n         C            1.132911890258    -1.157073572730    -0.801153754165    12.000000000000\n         C           -0.012262141770    -2.415631172285     1.215184021699    12.000000000000\n         O            0.278755681551    -4.558580598554     1.976743650258    15.994914619570\n         N           -1.794273878076    -0.830150953026     2.475631347379    14.003074004430\n         C           -2.389537607596     1.620823831693     1.886036796236    12.000000000000\n         N           -4.060055502500     2.879381431248     3.327897829961    14.003074004430\n         N           -1.346408786343     2.818910195233    -0.066050291361    14.003074004430\n         C            0.446941306717     1.327916282247    -1.283033916156    12.000000000000\n         H            1.919037958448     3.807236958848    -4.140299817849     1.007825032230\n         H           -2.720239679551    -1.699424970736     3.972294438742     1.007825032230\n         H            4.817877834901     0.131719644832    -5.370511525522     1.007825032230\n         H           -4.434221275341     4.678400702684     2.823340954464     1.007825032230\n         H           -4.866968558071     2.102703993685     4.909598596969     1.007825032230\n\n  Running in c1 symmetry.\n\n  Rotational constants: A =      0.06486  B =      0.03693  C =      0.02354 [cm^-1]\n  Rotational constants: A =   1944.44089  B =   1107.15421  C =    705.76789 [MHz]\n  Nuclear repulsion =  594.696986190152870\n\n  Charge       = 0\n  Multiplicity = 1\n  Electrons    = 78\n  Nalpha       = 39\n  Nbeta        = 39\n\n  ==> Algorithm <==\n\n  SCF Algorithm Type is DF.\n  DIIS enabled.\n  MOM disabled.\n  Fractional occupation disabled.\n  Guess Type is SAD.\n  Energy threshold   = 1.00e-06\n  Density threshold  = 1.00e-06\n  Integral threshold = 0.00e+00\n\n  ==> Primary Basis <==\n\n  Basis Set: PCSEG-3\n    Blend: PCSEG-3\n    Number of shells: 231\n    Number of basis function: 825\n    Number of Cartesian functions: 1026\n    Spherical Harmonics?: true\n    Max angular momentum: 4\n\n  ==> DFT Potential <==\n\n   => Composite Functional: B97M-V <= \n\n    B97M-V GGA Exchange-Correlation Functional\n\n    N. Mardirossian and M. Head-Gordon, J. Chem. Phys. 142, 074111 (2015)\n\n    Deriv               =              1\n    GGA                 =           TRUE\n    Meta                =           TRUE\n\n    Exchange Hybrid     =          FALSE\n    MP2 Hybrid          =          FALSE\n\n   => Exchange-Correlation Functionals <=\n\n    1.0000   B97M-V exchange-correlation functional\n\n   => LibXC Density Thresholds  <==\n\n    XC_MGGA_XC_B97M_V:  1.00E-23 \n\n   => VV10 Non-Local Parameters <=\n\n    VV10 B              =     6.0000E+00\n    VV10 C              =     1.0000E-02\n\n   => Molecular Quadrature <=\n\n    Radial Scheme          =       TREUTLER\n    Pruning Scheme         =           NONE\n    Nuclear Scheme         =       TREUTLER\n\n    BS radius alpha        =              1\n    Pruning alpha          =              1\n    Radial Points          =             75\n    Spherical Points       =            302\n    Total Points           =         338290\n    Total Blocks           =           2516\n    Max Points             =            256\n    Max Functions          =            681\n    Weights Tolerance      =       1.00E-15\n\n   => Loading Basis Set <=\n\n    Name: (PCSEG-3 AUX)\n    Role: JKFIT\n    Keyword: DF_BASIS_SCF\n    atoms 1, 3, 7, 9-10 entry N          line   258 file /group/f97/kraus/miniconda3/envs/psi4-1.4a2.dev923/share/psi4/basis/def2-universal-jkfit.gbs \n    atoms 2, 4-5, 8, 11 entry C          line   198 file /group/f97/kraus/miniconda3/envs/psi4-1.4a2.dev923/share/psi4/basis/def2-universal-jkfit.gbs \n    atoms 6             entry O          line   318 file /group/f97/kraus/miniconda3/envs/psi4-1.4a2.dev923/share/psi4/basis/def2-universal-jkfit.gbs \n    atoms 12-16         entry H          line    18 file /group/f97/kraus/miniconda3/envs/psi4-1.4a2.dev923/share/psi4/basis/def2-universal-jkfit.gbs \n\n  ==> Integral Setup <==\n\n  DFHelper Memory: AOs need 4.055 GiB; user supplied 547.954 GiB. Using in-core AOs.\n\n  ==> MemDFJK: Density-Fitted J/K Matrices <==\n\n    J tasked:                   Yes\n    K tasked:                    No\n    wK tasked:                   No\n    OpenMP threads:              16\n    Memory [MiB]:            561104\n    Algorithm:                 Core\n    Schwarz Cutoff:           1E-12\n    Mask sparsity (%):      18.5221\n    Fitting Condition:        1E-10\n\n   => Auxiliary Basis Set <=\n\n  Basis Set: (PCSEG-3 AUX)\n    Blend: DEF2-UNIVERSAL-JKFIT\n    Number of shells: 305\n    Number of basis function: 927\n    Number of Cartesian functions: 1103\n    Spherical Harmonics?: true\n    Max angular momentum: 4\n\n  Cached 100.0% of DFT collocation blocks in 10.840 [GiB].\n\n  Minimum eigenvalue in the overlap matrix is 1.3926579587E-05.\n  Reciprocal condition number of the overlap matrix is 1.0730750603E-06.\n    Using symmetric orthogonalization.\n\n  ==> Pre-Iterations <==\n\n  SCF Guess: Superposition of Atomic Densities via on-the-fly atomic UHF (no occupation information).\n\n   -------------------------\n    Irrep   Nso     Nmo    \n   -------------------------\n     A        825     825 \n   -------------------------\n    Total     825     825\n   -------------------------\n\n  ==> Iterations <==\n\n                           Total Energy        Delta E     RMS |[F,P]|\n\n   @DF-RKS iter SAD:  -542.43471453578366   -5.42435e+02   0.00000e+00 \n   @DF-RKS iter   1:  -542.01579565375278    4.18919e-01   1.54167e-03 DIIS\n   @DF-RKS iter   2:  -539.41252359461146    2.60327e+00   2.75233e-03 DIIS\n   @DF-RKS iter   3:  -542.36078307492278   -2.94826e+00   1.02317e-03 DIIS\n   @DF-RKS iter   4:  -542.72758416972829   -3.66801e-01   2.08537e-04 DIIS\n   @DF-RKS iter   5:  -542.72563615962861    1.94801e-03   2.25138e-04 DIIS\n   @DF-RKS iter   6:  -542.74318580515410   -1.75496e-02   6.26259e-05 DIIS\n   @DF-RKS iter   7:  -542.74421928140214   -1.03348e-03   2.63371e-05 DIIS\n   @DF-RKS iter   8:  -542.74440601618323   -1.86735e-04   9.60111e-06 DIIS\n   @DF-RKS iter   9:  -542.74442625125539   -2.02351e-05   4.74101e-06 DIIS\n   @DF-RKS iter  10:  -542.74443213348354   -5.88223e-06   1.39548e-06 DIIS\n   @DF-RKS iter  11:  -542.74443265894672   -5.25463e-07   4.66733e-07 DIIS\n  Energy and wave function converged.\n\n\n  ==> Post-Iterations <==\n\n    Orbital Energies [Eh]\n    ---------------------\n\n    Doubly Occupied:                                                      \n\n       1A    -19.111870     2A    -14.401745     3A    -14.397118  \n       4A    -14.389378     5A    -14.338866     6A    -14.327493  \n       7A    -10.319470     8A    -10.280886     9A    -10.261404  \n      10A    -10.244225    11A    -10.197536    12A     -1.037075  \n      13A     -1.009544    14A     -0.994401    15A     -0.908484  \n      16A     -0.887326    17A     -0.864168    18A     -0.748198  \n      19A     -0.651720    20A     -0.639029    21A     -0.600786  \n      22A     -0.575867    23A     -0.527141    24A     -0.522306  \n      25A     -0.500318    26A     -0.466219    27A     -0.448860  \n      28A     -0.432858    29A     -0.406384    30A     -0.403506  \n      31A     -0.388460    32A     -0.366509    33A     -0.297903  \n      34A     -0.291246    35A     -0.269035    36A     -0.264955  \n      37A     -0.248040    38A     -0.232669    39A     -0.195231  \n\n    Virtual:                                                              \n\n      40A     -0.036847    41A     -0.035000    42A     -0.025852  \n      43A     -0.011926    44A      0.003628    45A      0.010012  \n      46A      0.024352    47A      0.031919    48A      0.042603  \n      49A      0.044764    50A      0.066546    51A      0.071151  \n      52A      0.074599    53A      0.083297    54A      0.102476  \n      55A      0.106860    56A      0.114325    57A      0.119876  \n      58A      0.131111    59A      0.136196    60A      0.139611  \n      61A      0.143825    62A      0.148949    63A      0.149171  \n      64A      0.152646    65A      0.165391    66A      0.171301  \n      67A      0.181966    68A      0.183919    69A      0.187710  \n      70A      0.188890    71A      0.193944    72A      0.199282  \n      73A      0.210755    74A      0.212242    75A      0.227658  \n      76A      0.233992    77A      0.241427    78A      0.247573  \n      79A      0.255457    80A      0.264309    81A      0.266847  \n      82A      0.270102    83A      0.278755    84A      0.291205  \n      85A      0.298649    86A      0.302573    87A      0.317005  \n      88A      0.324273    89A      0.325238    90A      0.330321  \n      91A      0.334583    92A      0.343210    93A      0.351622  \n      94A      0.357399    95A      0.374092    96A      0.377909  \n      97A      0.390464    98A      0.390831    99A      0.400277  \n     100A      0.414743   101A      0.419511   102A      0.429768  \n     103A      0.444482   104A      0.456739   105A      0.470571  \n     106A      0.476728   107A      0.483022   108A      0.487362  \n     109A      0.503461   110A      0.505546   111A      0.512242  \n     112A      0.515830   113A      0.527302   114A      0.529712  \n     115A      0.541265   116A      0.544677   117A      0.548958  \n     118A      0.555234   119A      0.560187   120A      0.574558  \n     121A      0.577330   122A      0.582167   123A      0.594527  \n     124A      0.597679   125A      0.603778   126A      0.608316  \n     127A      0.616810   128A      0.620730   129A      0.632047  \n     130A      0.633227   131A      0.641457   132A      0.653366  \n     133A      0.667410   134A      0.678947   135A      0.696318  \n     136A      0.701718   137A      0.705734   138A      0.709594  \n     139A      0.727290   140A      0.739181   141A      0.749124  \n     142A      0.762491   143A      0.765010   144A      0.772271  \n     145A      0.783557   146A      0.811151   147A      0.821046  \n     148A      0.823330   149A      0.830100   150A      0.839324  \n     151A      0.847075   152A      0.850302   153A      0.857760  \n     154A      0.867152   155A      0.875894   156A      0.887075  \n     157A      0.899520   158A      0.913410   159A      0.917978  \n     160A      0.925584   161A      0.935064   162A      0.941595  \n     163A      0.949860   164A      0.954530   165A      0.960150  \n     166A      0.972053   167A      0.986373   168A      0.986760  \n     169A      1.000545   170A      1.016123   171A      1.020497  \n     172A      1.043188   173A      1.049438   174A      1.060015  \n     175A      1.075310   176A      1.082925   177A      1.099346  \n     178A      1.102400   179A      1.108026   180A      1.112770  \n     181A      1.149637   182A      1.153962   183A      1.167714  \n     184A      1.179836   185A      1.186361   186A      1.193599  \n     187A      1.208671   188A      1.216311   189A      1.229744  \n     190A      1.235834   191A      1.244447   192A      1.252289  \n     193A      1.260220   194A      1.277858   195A      1.296531  \n     196A      1.313804   197A      1.333456   198A      1.349139  \n     199A      1.357848   200A      1.385877   201A      1.405797  \n     202A      1.414065   203A      1.421691   204A      1.432070  \n     205A      1.436822   206A      1.448293   207A      1.465138  \n     208A      1.481528   209A      1.518764   210A      1.525091  \n     211A      1.551523   212A      1.554168   213A      1.565968  \n     214A      1.574723   215A      1.586651   216A      1.601490  \n     217A      1.624739   218A      1.631740   219A      1.652755  \n     220A      1.656961   221A      1.682140   222A      1.703339  \n     223A      1.716856   224A      1.720891   225A      1.726510  \n     226A      1.735943   227A      1.747631   228A      1.755169  \n     229A      1.762085   230A      1.780977   231A      1.789886  \n     232A      1.812834   233A      1.817746   234A      1.845318  \n     235A      1.848249   236A      1.857861   237A      1.862137  \n     238A      1.874771   239A      1.888505   240A      1.910491  \n     241A      1.918180   242A      1.929797   243A      1.945973  \n     244A      1.969733   245A      1.983554   246A      1.987352  \n     247A      1.999112   248A      2.004693   249A      2.013816  \n     250A      2.033320   251A      2.039031   252A      2.047359  \n     253A      2.062121   254A      2.069135   255A      2.077710  \n     256A      2.085225   257A      2.095780   258A      2.103657  \n     259A      2.121454   260A      2.130986   261A      2.142837  \n     262A      2.154272   263A      2.169652   264A      2.183507  \n     265A      2.188291   266A      2.195772   267A      2.217322  \n     268A      2.219164   269A      2.239232   270A      2.270292  \n     271A      2.275557   272A      2.295371   273A      2.306321  \n     274A      2.315893   275A      2.328772   276A      2.331202  \n     277A      2.341319   278A      2.361601   279A      2.369781  \n     280A      2.378038   281A      2.378794   282A      2.403494  \n     283A      2.405721   284A      2.415928   285A      2.424595  \n     286A      2.435661   287A      2.456606   288A      2.465739  \n     289A      2.475971   290A      2.486534   291A      2.490883  \n     292A      2.496753   293A      2.507380   294A      2.520273  \n     295A      2.536165   296A      2.552453   297A      2.554476  \n     298A      2.569462   299A      2.587886   300A      2.594413  \n     301A      2.609880   302A      2.622904   303A      2.626934  \n     304A      2.634241   305A      2.646585   306A      2.649097  \n     307A      2.706508   308A      2.708978   309A      2.728766  \n     310A      2.731925   311A      2.748378   312A      2.760020  \n     313A      2.765833   314A      2.771546   315A      2.786978  \n     316A      2.799677   317A      2.830407   318A      2.848632  \n     319A      2.862051   320A      2.880752   321A      2.886829  \n     322A      2.901351   323A      2.909424   324A      2.945983  \n     325A      2.952672   326A      2.964733   327A      2.970347  \n     328A      2.989314   329A      2.993213   330A      3.013737  \n     331A      3.015950   332A      3.040255   333A      3.053433  \n     334A      3.074837   335A      3.105794   336A      3.112211  \n     337A      3.116109   338A      3.126859   339A      3.156297  \n     340A      3.188958   341A      3.206089   342A      3.209703  \n     343A      3.218143   344A      3.232068   345A      3.269268  \n     346A      3.271924   347A      3.294175   348A      3.304993  \n     349A      3.316066   350A      3.326733   351A      3.363039  \n     352A      3.389307   353A      3.393148   354A      3.403820  \n     355A      3.429740   356A      3.447114   357A      3.450928  \n     358A      3.472695   359A      3.495497   360A      3.499777  \n     361A      3.541115   362A      3.552727   363A      3.569674  \n     364A      3.574224   365A      3.587527   366A      3.605812  \n     367A      3.636783   368A      3.652550   369A      3.669026  \n     370A      3.690484   371A      3.697971   372A      3.737301  \n     373A      3.744552   374A      3.749027   375A      3.769473  \n     376A      3.783904   377A      3.816182   378A      3.836040  \n     379A      3.851133   380A      3.861750   381A      3.864353  \n     382A      3.888566   383A      3.904506   384A      3.919553  \n     385A      3.927676   386A      3.942864   387A      3.959932  \n     388A      3.975135   389A      3.980849   390A      4.009234  \n     391A      4.034421   392A      4.063745   393A      4.091187  \n     394A      4.112247   395A      4.155156   396A      4.186361  \n     397A      4.190077   398A      4.213513   399A      4.259481  \n     400A      4.274269   401A      4.288871   402A      4.313761  \n     403A      4.338392   404A      4.359998   405A      4.373645  \n     406A      4.429357   407A      4.473796   408A      4.505553  \n     409A      4.519863   410A      4.530228   411A      4.569312  \n     412A      4.595148   413A      4.614904   414A      4.641104  \n     415A      4.655317   416A      4.701444   417A      4.713409  \n     418A      4.733133   419A      4.744388   420A      4.806886  \n     421A      4.832144   422A      4.841857   423A      4.856529  \n     424A      4.878057   425A      4.901695   426A      4.904446  \n     427A      4.929314   428A      4.954649   429A      4.977540  \n     430A      4.993150   431A      5.005274   432A      5.043747  \n     433A      5.049919   434A      5.082357   435A      5.104145  \n     436A      5.126036   437A      5.141366   438A      5.160457  \n     439A      5.175681   440A      5.194483   441A      5.233809  \n     442A      5.240464   443A      5.259888   444A      5.277216  \n     445A      5.299105   446A      5.325823   447A      5.343814  \n     448A      5.360651   449A      5.368081   450A      5.400574  \n     451A      5.431279   452A      5.451068   453A      5.476218  \n     454A      5.497458   455A      5.549295   456A      5.569172  \n     457A      5.593460   458A      5.603779   459A      5.665558  \n     460A      5.708336   461A      5.711779   462A      5.780343  \n     463A      5.822569   464A      5.868103   465A      5.889592  \n     466A      5.946666   467A      5.954769   468A      6.018123  \n     469A      6.037547   470A      6.048212   471A      6.071275  \n     472A      6.081706   473A      6.107201   474A      6.128942  \n     475A      6.144707   476A      6.151928   477A      6.160024  \n     478A      6.173578   479A      6.199060   480A      6.205811  \n     481A      6.217331   482A      6.252193   483A      6.269254  \n     484A      6.285065   485A      6.326181   486A      6.341150  \n     487A      6.347425   488A      6.376581   489A      6.383420  \n     490A      6.409316   491A      6.445976   492A      6.470309  \n     493A      6.480437   494A      6.524900   495A      6.534645  \n     496A      6.557557   497A      6.570688   498A      6.613446  \n     499A      6.619079   500A      6.649685   501A      6.659682  \n     502A      6.681061   503A      6.688684   504A      6.716289  \n     505A      6.769945   506A      6.788969   507A      6.797329  \n     508A      6.823820   509A      6.835886   510A      6.880321  \n     511A      6.886936   512A      6.914586   513A      6.962894  \n     514A      6.970561   515A      7.007638   516A      7.014870  \n     517A      7.031057   518A      7.049788   519A      7.056527  \n     520A      7.087702   521A      7.110852   522A      7.121771  \n     523A      7.192270   524A      7.208550   525A      7.217958  \n     526A      7.241040   527A      7.257463   528A      7.307278  \n     529A      7.337002   530A      7.346384   531A      7.374908  \n     532A      7.392370   533A      7.421490   534A      7.433020  \n     535A      7.446321   536A      7.507716   537A      7.522167  \n     538A      7.535131   539A      7.540952   540A      7.610530  \n     541A      7.626872   542A      7.648245   543A      7.660604  \n     544A      7.663144   545A      7.693352   546A      7.701994  \n     547A      7.725749   548A      7.742483   549A      7.753544  \n     550A      7.785715   551A      7.792253   552A      7.809268  \n     553A      7.818519   554A      7.829266   555A      7.841596  \n     556A      7.869919   557A      7.897425   558A      7.917598  \n     559A      7.942410   560A      7.942994   561A      7.952967  \n     562A      7.977697   563A      8.006810   564A      8.027521  \n     565A      8.039486   566A      8.049191   567A      8.073248  \n     568A      8.092774   569A      8.095234   570A      8.099158  \n     571A      8.138101   572A      8.142882   573A      8.164295  \n     574A      8.171312   575A      8.181203   576A      8.190894  \n     577A      8.197202   578A      8.219390   579A      8.228305  \n     580A      8.243817   581A      8.253815   582A      8.258844  \n     583A      8.286276   584A      8.294049   585A      8.297840  \n     586A      8.318939   587A      8.331108   588A      8.362302  \n     589A      8.397632   590A      8.421405   591A      8.428825  \n     592A      8.439618   593A      8.463437   594A      8.476181  \n     595A      8.490977   596A      8.497735   597A      8.552222  \n     598A      8.569962   599A      8.581667   600A      8.584475  \n     601A      8.611804   602A      8.645238   603A      8.668982  \n     604A      8.677883   605A      8.703959   606A      8.732430  \n     607A      8.742794   608A      8.756151   609A      8.800726  \n     610A      8.811842   611A      8.819384   612A      8.845761  \n     613A      8.895779   614A      8.916435   615A      8.926722  \n     616A      8.962727   617A      8.995461   618A      9.023597  \n     619A      9.027253   620A      9.045117   621A      9.052256  \n     622A      9.076206   623A      9.096681   624A      9.109315  \n     625A      9.123414   626A      9.132712   627A      9.142284  \n     628A      9.155966   629A      9.161820   630A      9.171154  \n     631A      9.206739   632A      9.218768   633A      9.242632  \n     634A      9.252814   635A      9.263098   636A      9.267103  \n     637A      9.288317   638A      9.291869   639A      9.305742  \n     640A      9.308663   641A      9.336130   642A      9.350462  \n     643A      9.365865   644A      9.384141   645A      9.402809  \n     646A      9.424326   647A      9.425883   648A      9.444622  \n     649A      9.461439   650A      9.497946   651A      9.503533  \n     652A      9.525442   653A      9.543524   654A      9.577631  \n     655A      9.629195   656A      9.663381   657A      9.691418  \n     658A      9.697444   659A      9.704650   660A      9.730529  \n     661A      9.737036   662A      9.752549   663A      9.774582  \n     664A      9.797064   665A      9.828528   666A      9.844391  \n     667A      9.850211   668A      9.866750   669A      9.879086  \n     670A      9.880036   671A      9.932638   672A      9.944823  \n     673A      9.973251   674A      9.987286   675A      9.995860  \n     676A     10.037562   677A     10.051220   678A     10.073893  \n     679A     10.083251   680A     10.091573   681A     10.138384  \n     682A     10.149589   683A     10.153042   684A     10.163185  \n     685A     10.185678   686A     10.192441   687A     10.220673  \n     688A     10.227957   689A     10.252201   690A     10.295677  \n     691A     10.303650   692A     10.336004   693A     10.338790  \n     694A     10.370161   695A     10.380715   696A     10.389527  \n     697A     10.405401   698A     10.456562   699A     10.470356  \n     700A     10.496363   701A     10.509325   702A     10.519348  \n     703A     10.552588   704A     10.579826   705A     10.666398  \n     706A     10.674281   707A     10.719118   708A     10.765519  \n     709A     10.803211   710A     10.861207   711A     10.887940  \n     712A     10.911643   713A     10.985600   714A     11.004971  \n     715A     11.067013   716A     11.108344   717A     11.227983  \n     718A     11.267761   719A     11.313967   720A     11.365299  \n     721A     11.398920   722A     11.483900   723A     11.516698  \n     724A     11.569809   725A     11.648944   726A     11.731467  \n     727A     11.879527   728A     11.898955   729A     11.915315  \n     730A     11.981399   731A     11.989138   732A     12.090368  \n     733A     12.114084   734A     12.159674   735A     12.218022  \n     736A     12.613094   737A     12.808323   738A     12.847346  \n     739A     12.948201   740A     13.048793   741A     13.271169  \n     742A     13.516107   743A     13.605391   744A     13.670090  \n     745A     16.670074   746A     16.733292   747A     16.757045  \n     748A     16.778214   749A     16.805214   750A     16.827862  \n     751A     16.860504   752A     16.909137   753A     16.957556  \n     754A     17.004584   755A     17.017836   756A     17.070484  \n     757A     17.123969   758A     17.143017   759A     17.254207  \n     760A     17.339036   761A     17.425538   762A     17.478514  \n     763A     17.542995   764A     17.629949   765A     17.649663  \n     766A     17.676264   767A     17.850552   768A     17.918515  \n     769A     18.088426   770A     19.425612   771A     19.484614  \n     772A     19.514651   773A     19.547045   774A     19.554928  \n     775A     19.556920   776A     19.575480   777A     19.589046  \n     778A     19.595776   779A     19.612661   780A     19.627389  \n     781A     19.639019   782A     19.644856   783A     19.664797  \n     784A     19.699149   785A     19.749905   786A     19.775559  \n     787A     19.932067   788A     19.983965   789A     20.001095  \n     790A     20.057635   791A     20.069397   792A     20.121196  \n     793A     20.143388   794A     20.203610   795A     20.241942  \n     796A     20.266651   797A     20.294782   798A     20.298695  \n     799A     20.392818   800A     20.401559   801A     20.586976  \n     802A     20.638802   803A     20.741509   804A     20.797253  \n     805A     20.819736   806A     21.369810   807A     21.504246  \n     808A     21.570434   809A     21.632730   810A     22.643768  \n     811A     22.693870   812A     22.954898   813A     23.213936  \n     814A     23.225310   815A     25.939800   816A     26.220714  \n     817A     26.690547   818A     27.268709   819A     27.364489  \n     820A     34.542495   821A     34.731730   822A     36.135846  \n     823A     36.406183   824A     36.695389   825A     45.073341  \n\n    Final Occupation by Irrep:\n              A \n    DOCC [    39 ]\n\n  @DF-RKS Final Energy:  -542.74443265894672\n\n   => Energetics <=\n\n    Nuclear Repulsion Energy =            594.6969861901528702\n    One-Electron Energy =               -1916.4750715416514595\n    Two-Electron Energy =                 851.2665938894904230\n    DFT Exchange-Correlation Energy =     -72.5308909338996557\n    Empirical Dispersion Energy =           0.0000000000000000\n    VV10 Nonlocal Energy =                  0.2979497369612115\n    Total Energy =                       -542.7444326589467209\n\nComputation Completed\n\n\nProperties will be evaluated at   0.000000,   0.000000,   0.000000 [a0]\n\nProperties computed using the SCF density matrix\n\n  Nuclear Dipole Moment: [e a0]\n     X:    -2.6175      Y:     4.4557      Z:     1.0936\n\n  Electronic Dipole Moment: [e a0]\n     X:     1.3583      Y:    -2.0523      Z:    -0.7515\n\n  Dipole Moment: [e a0]\n     X:    -1.2592      Y:     2.4034      Z:     0.3421     Total:     2.7348\n\n  Dipole Moment: [D]\n     X:    -3.2006      Y:     6.1088      Z:     0.8695     Total:     6.9511\n\n\n*** tstop() called on z136 at Sun Apr 25 14:07:26 2021\nModule time:\n\tuser time   =    1976.98 seconds =      32.95 minutes\n\tsystem time =      30.17 seconds =       0.50 minutes\n\ttotal time  =        149 seconds =       2.48 minutes\nTotal time:\n\tuser time   =    1976.98 seconds =      32.95 minutes\n\tsystem time =      30.17 seconds =       0.50 minutes\n\ttotal time  =        149 seconds =       2.48 minutes\n\n    Psi4 stopped on: Sunday, 25 April 2021 02:07PM\n    Psi4 wall time for execution: 0:02:28.70\n\n*** Psi4 exiting successfully. Buy a developer a beer!\n",
 "stderr": null,
 "success": true,
 "error": null,
 "tag": "b97m-v pcseg-3 ggg_a"
}