{
 "id": null,
 "schema_name": "qcschema_output",
 "schema_version": 1,
 "molecule": {
  "validated": true,
  "symbols": [
   "N",
   "C",
   "N",
   "C",
   "C",
   "O",
   "N",
   "C",
   "N",
   "N",
   "C",
   "H",
   "H",
   "H",
   "H",
   "H"
  ],
  "geometry": [
   1.9795091944628955,
   2.1064834459358144,
   -3.2710258001379717,
   3.442157215567254,
   0.04479224306132246,
   -3.8587306251553546,
   3.037755824719278,
   -1.9205229274148177,
   -2.447105209438357,
   1.1329118902577873,
   -1.157073572729854,
   -0.8011537541645827,
   -0.012262141769655663,
   -2.415631172284768,
   1.2151840216989083,
   0.2787556815508495,
   -4.558580598553946,
   1.9767436502584184,
   -1.7942738780763892,
   -0.8301509530256518,
   2.4756313473792826,
   -2.3895376075956043,
   1.6208238316931525,
   1.8860367962364304,
   -4.060055502500323,
   2.879381431248068,
   3.327897829960767,
   -1.3464087863428829,
   2.818910195233415,
   -0.06605029136148675,
   0.4469413067165973,
   1.3279162822471884,
   -1.2830339161563362,
   1.9190379584482444,
   3.80723695884786,
   -4.140299817848581,
   -2.720239679550724,
   -1.6994249707362516,
   3.9722944387418746,
   4.817877834900553,
   0.1317196448323844,
   -5.370511525521616,
   -4.434221275340973,
   4.678400702683921,
   2.8233409544635233,
   -4.866968558070816,
   2.102703993684897,
   4.9095985969689675
  ],
  "name": "C5H5N5O",
  "molecular_charge": 0.0,
  "molecular_multiplicity": 1,
  "masses": [
   14.00307400443,
   12.0,
   14.00307400443,
   12.0,
   12.0,
   15.99491461957,
   14.00307400443,
   12.0,
   14.00307400443,
   14.00307400443,
   12.0,
   1.00782503223,
   1.00782503223,
   1.00782503223,
   1.00782503223,
   1.00782503223
  ],
  "real": [
   true,
   true,
   true,
   true,
   true,
   true,
   true,
   true,
   true,
   true,
   true,
   true,
   true,
   true,
   true,
   true
  ],
  "atom_labels": [
   "",
   "",
   "",
   "",
   "",
   "",
   "",
   "",
   "",
   "",
   "",
   "",
   "",
   "",
   "",
   ""
  ],
  "atomic_numbers": [
   7,
   6,
   7,
   6,
   6,
   8,
   7,
   6,
   7,
   7,
   6,
   1,
   1,
   1,
   1,
   1
  ],
  "mass_numbers": [
   14,
   12,
   14,
   12,
   12,
   16,
   14,
   12,
   14,
   14,
   12,
   1,
   1,
   1,
   1,
   1
  ],
  "fragments": [
   [
    0,
    1,
    2,
    3,
    4,
    5,
    6,
    7,
    8,
    9,
    10,
    11,
    12,
    13,
    14,
    15
   ]
  ],
  "fragment_charges": [
   0.0
  ],
  "fragment_multiplicities": [
   1
  ],
  "fix_com": false,
  "fix_orientation": false,
  "provenance": {
   "creator": "QCElemental",
   "version": "v0.19.0",
   "routine": "qcelemental.molparse.from_string"
  }
 },
 "driver": "energy",
 "model": {
  "method": "dsd-pbep86-nl",
  "basis": "def2-svpd"
 },
 "keywords": {
  "guess": "SAP"
 },
 "protocols": {},
 "extras": {
  "qcvars": {
   "CURRENT DIPOLE X": -3.3133780237076302,
   "CURRENT DIPOLE Y": 6.463704974934418,
   "CURRENT DIPOLE Z": 0.8382852606537854,
   "CURRENT ENERGY": -541.007481208058,
   "CURRENT REFERENCE ENERGY": -540.1452665618668,
   "DFT FUNCTIONAL TOTAL ENERGY": -540.1452665618668,
   "DFT TOTAL ENERGY": -541.007481208058,
   "DFT VV10 ENERGY": 0.10475218021212174,
   "DFT XC ENERGY": -22.59913388648731,
   "DOUBLE-HYBRID CORRECTION ENERGY": -0.8622146461912175,
   "DSD-PBEP86-NL DOUBLE-HYBRID CORRECTION ENERGY": -0.8622146461912175,
   "DSD-PBEP86-NL TOTAL ENERGY": -541.007481208058,
   "NUCLEAR REPULSION ENERGY": 594.6969861901529,
   "ONE-ELECTRON ENERGY": -1914.3393323693429,
   "PCM POLARIZATION ENERGY": 0.0,
   "PE ENERGY": 0.0,
   "SCF DIPOLE X": -3.3133780237076302,
   "SCF DIPOLE Y": 6.463704974934418,
   "SCF DIPOLE Z": 0.8382852606537854,
   "SCF ITERATION ENERGY": -540.1452665618668,
   "SCF ITERATIONS": 11.0,
   "SCF TOTAL ENERGY": -540.1452665618668,
   "TWO-ELECTRON ENERGY": 801.9914613235984,
   "XC GRID RADIAL POINTS": 75.0,
   "XC GRID SPHERICAL POINTS": 302.0,
   "XC GRID TOTAL POINTS": 337619.0,
   "CURRENT DIPOLE": [
    -1.3035832198122304,
    2.5430172116952634,
    0.3298067987972573
   ],
   "SCF DIPOLE": [
    -1.3035832198122304,
    2.5430172116952634,
    0.3298067987972573
   ]
  }
 },
 "provenance": {
  "creator": "Psi4",
  "version": "1.4a2.dev923",
  "routine": "psi4.schema_runner.run_qcschema",
  "memory": 200.0,
  "qcengine_version": "v0.17.0",
  "nthreads": 32,
  "hostname": "bignimbus",
  "username": "ubuntu",
  "cpu": "AMD EPYC Processor (with IBPB)",
  "wall_time": 26.933603286743164
 },
 "properties": {
  "calcinfo_nbasis": 263,
  "calcinfo_nmo": 263,
  "calcinfo_nalpha": 39,
  "calcinfo_nbeta": 39,
  "calcinfo_natom": 16,
  "nuclear_repulsion_energy": 594.6969861901529,
  "return_energy": -541.007481208058,
  "scf_one_electron_energy": -1914.3393323693429,
  "scf_two_electron_energy": 801.9914613235984,
  "scf_vv10_energy": 0.10475218021212174,
  "scf_xc_energy": -22.59913388648731,
  "scf_dipole_moment": [
   -1.3035832198122304,
   2.5430172116952634,
   0.3298067987972573
  ],
  "scf_total_energy": -540.1452665618668,
  "scf_iterations": 11
 },
 "wavefunction": null,
 "return_result": -541.007481208058,
 "stdout": "\n    -----------------------------------------------------------------------\n          Psi4: An Open-Source Ab Initio Electronic Structure Package\n                               Psi4 1.4a2.dev923 \n\n                         Git: Rev {master} 5de566e \n\n\n    D. G. A. Smith, L. A. Burns, A. C. Simmonett, R. M. Parrish,\n    M. C. Schieber, R. Galvelis, P. Kraus, H. Kruse, R. Di Remigio,\n    A. Alenaizan, A. M. James, S. Lehtola, J. P. Misiewicz, M. Scheurer,\n    R. A. Shaw, J. B. Schriber, Y. Xie, Z. L. Glick, D. A. Sirianni,\n    J. S. O'Brien, J. M. Waldrop, A. Kumar, E. G. Hohenstein,\n    B. P. Pritchard, B. R. Brooks, H. F. Schaefer III, A. Yu. Sokolov,\n    K. Patkowski, A. E. DePrince III, U. Bozkaya, R. A. King,\n    F. A. Evangelista, J. M. Turney, T. D. Crawford, C. D. Sherrill,\n    J. Chem. Phys. 152(18) 184108 (2020). https://doi.org/10.1063/5.0006002\n\n                            Additional Code Authors\n    E. T. Seidl, C. L. Janssen, E. F. Valeev, M. L. Leininger,\n    J. F. Gonthier, R. M. Richard, H. R. McAlexander, M. Saitow, X. Wang,\n    P. Verma, and M. H. Lechner\n\n             Previous Authors, Complete List of Code Contributors,\n                       and Citations for Specific Modules\n    https://github.com/psi4/psi4/blob/master/codemeta.json\n    https://github.com/psi4/psi4/graphs/contributors\n    http://psicode.org/psi4manual/master/introduction.html#citing-psifour\n\n    -----------------------------------------------------------------------\n\n\n    Psi4 started on: Monday, 17 May 2021 02:02AM\n\n    Process ID: 2456407\n    Host:       bignimbus\n    PSIDATADIR: /home/ubuntu/pk/Applications/miniconda3/envs/psi4-1.4a2.dev923/share/psi4\n    Memory:     186.3 GiB\n    Threads:    32\n    \n  ==> Input QCSchema <==\n\n--------------------------------------------------------------------------\n{'driver': 'energy',\n 'extras': {},\n 'id': None,\n 'keywords': {'guess': 'SAP'},\n 'model': {'basis': 'def2-svpd', 'method': 'dsd-pbep86-nl'},\n 'molecule': {'atom_labels': ['', '', '', '', '', '', '', '', '', '', '', '', '', '', '', ''],\n              'atomic_numbers': [7, 6, 7, 6, 6, 8, 7, 6, 7, 7, 6, 1, 1, 1, 1, 1],\n              'fix_com': False,\n              'fix_orientation': False,\n              'fragment_charges': [0.0],\n              'fragment_multiplicities': [1],\n              'fragments': [[0, 1, 2, 3, 4, 5, 6, 7, 8, 9, 10, 11, 12, 13, 14, 15]],\n              'geometry': [1.9795091944628904, 2.10648344593581, -3.2710258001380055, 3.4421572155672493,\n                           0.044792243061317905, -3.8587306251553883, 3.037755824719273, -1.9205229274148223,\n                           -2.4471052094383907, 1.1329118902577822, -1.1570735727298587, -0.8011537541646163,\n                           -0.012262141769660673, -2.4156311722847725, 1.2151840216988745, 0.2787556815508445,\n                           -4.5585805985539505, 1.9767436502583846, -1.7942738780763943, -0.8301509530256563,\n                           2.475631347379249, -2.389537607595609, 1.6208238316931478, 1.8860367962363966,\n                           -4.060055502500329, 2.8793814312480634, 3.327897829960733, -1.346408786342888,\n                           2.8189101952334106, -0.06605029136152041, 0.4469413067165923, 1.3279162822471837,\n                           -1.28303391615637, 1.9190379584482393, 3.8072369588478554, -4.140299817848614,\n                           -2.720239679550729, -1.6994249707362563, 3.972294438741841, 4.817877834900548,\n                           0.13171964483237986, -5.37051152552165, -4.434221275340978, 4.678400702683916,\n                           2.8233409544634895, -4.8669685580708215, 2.1027039936848926, 4.909598596968934],\n              'mass_numbers': [14, 12, 14, 12, 12, 16, 14, 12, 14, 14, 12, 1, 1, 1, 1, 1],\n              'masses': [14.00307400443, 12.0, 14.00307400443, 12.0, 12.0, 15.99491461957, 14.00307400443, 12.0,\n                         14.00307400443, 14.00307400443, 12.0, 1.00782503223, 1.00782503223, 1.00782503223,\n                         1.00782503223, 1.00782503223],\n              'molecular_charge': 0.0,\n              'molecular_multiplicity': 1,\n              'name': 'C5H5N5O',\n              'provenance': {'creator': 'QCElemental',\n                             'routine': 'qcelemental.molparse.from_string',\n                             'version': 'v0.19.0'},\n              'real': [True, True, True, True, True, True, True, True, True, True, True, True, True, True, True, True],\n              'symbols': ['N', 'C', 'N', 'C', 'C', 'O', 'N', 'C', 'N', 'N', 'C', 'H', 'H', 'H', 'H', 'H'],\n              'validated': True},\n 'protocols': {},\n 'provenance': {'creator': 'QCElemental', 'routine': 'qcelemental.models.results', 'version': 'v0.17.0'},\n 'schema_name': 'qcschema_input',\n 'schema_version': 1}\n--------------------------------------------------------------------------\n\nScratch directory: /home/ubuntu/pk/scratch/tmp0rhf_ys2_psi_scratch/\n\n*** tstart() called on bignimbus\n*** at Mon May 17 02:02:34 2021\n\n   => Loading Basis Set <=\n\n    Name: DEF2-SVPD\n    Role: ORBITAL\n    Keyword: BASIS\n    atoms 1, 3, 7, 9-10 entry N          line   125 file /home/ubuntu/pk/Applications/miniconda3/envs/psi4-1.4a2.dev923/share/psi4/basis/def2-svpd.gbs \n    atoms 2, 4-5, 8, 11 entry C          line   101 file /home/ubuntu/pk/Applications/miniconda3/envs/psi4-1.4a2.dev923/share/psi4/basis/def2-svpd.gbs \n    atoms 6             entry O          line   149 file /home/ubuntu/pk/Applications/miniconda3/envs/psi4-1.4a2.dev923/share/psi4/basis/def2-svpd.gbs \n    atoms 12-16         entry H          line    14 file /home/ubuntu/pk/Applications/miniconda3/envs/psi4-1.4a2.dev923/share/psi4/basis/def2-svpd.gbs \n\n   => DSD-PBEP86-NL: Empirical Dispersion <=\n\n    Grimme's -NL (DFT plus VV10 correlation) \n    Hujo, W.; Grimme, S; (2011), J. Chem. Theory Comput.; 7:3866\n    Parametrisation from:    M. K. Kesharwani, A. Karton, J.M. L. Martin, J. Chem. Theory Comput. 12, 444-454, 2016\n\n         b =      12.800000\n         c =       0.009300\n\n\n         ---------------------------------------------------------\n                                   SCF\n               by Justin Turney, Rob Parrish, Andy Simmonett\n                          and Daniel G. A. Smith\n                              RKS Reference\n                       32 Threads, 190734 MiB Core\n         ---------------------------------------------------------\n\n  ==> Geometry <==\n\n    Molecular point group: c1\n    Full point group: C1\n\n    Geometry (in Bohr), charge = 0, multiplicity = 1:\n\n       Center              X                  Y                   Z               Mass       \n    ------------   -----------------  -----------------  -----------------  -----------------\n         N            1.979509194463     2.106483445936    -3.271025800138    14.003074004430\n         C            3.442157215567     0.044792243061    -3.858730625155    12.000000000000\n         N            3.037755824719    -1.920522927415    -2.447105209438    14.003074004430\n         C            1.132911890258    -1.157073572730    -0.801153754165    12.000000000000\n         C           -0.012262141770    -2.415631172285     1.215184021699    12.000000000000\n         O            0.278755681551    -4.558580598554     1.976743650258    15.994914619570\n         N           -1.794273878076    -0.830150953026     2.475631347379    14.003074004430\n         C           -2.389537607596     1.620823831693     1.886036796236    12.000000000000\n         N           -4.060055502500     2.879381431248     3.327897829961    14.003074004430\n         N           -1.346408786343     2.818910195233    -0.066050291361    14.003074004430\n         C            0.446941306717     1.327916282247    -1.283033916156    12.000000000000\n         H            1.919037958448     3.807236958848    -4.140299817849     1.007825032230\n         H           -2.720239679551    -1.699424970736     3.972294438742     1.007825032230\n         H            4.817877834901     0.131719644832    -5.370511525522     1.007825032230\n         H           -4.434221275341     4.678400702684     2.823340954464     1.007825032230\n         H           -4.866968558071     2.102703993685     4.909598596969     1.007825032230\n\n  Running in c1 symmetry.\n\n  Rotational constants: A =      0.06486  B =      0.03693  C =      0.02354 [cm^-1]\n  Rotational constants: A =   1944.44089  B =   1107.15421  C =    705.76789 [MHz]\n  Nuclear repulsion =  594.696986190152870\n\n  Charge       = 0\n  Multiplicity = 1\n  Electrons    = 78\n  Nalpha       = 39\n  Nbeta        = 39\n\n  ==> Algorithm <==\n\n  SCF Algorithm Type is DF.\n  DIIS enabled.\n  MOM disabled.\n  Fractional occupation disabled.\n  Guess Type is SAP.\n  Energy threshold   = 1.00e-06\n  Density threshold  = 1.00e-06\n  Integral threshold = 0.00e+00\n\n  ==> Primary Basis <==\n\n  Basis Set: DEF2-SVPD\n    Blend: DEF2-SVPD\n    Number of shells: 109\n    Number of basis function: 263\n    Number of Cartesian functions: 285\n    Spherical Harmonics?: true\n    Max angular momentum: 2\n\n  ==> DFT Potential <==\n\n   => Composite Functional: DSD-PBEP86-NL <= \n\n    DSD-PBEP86-NL (D3BJ parameters) VV10 SCS Double Hybrid XC Functional\n\n    S. Kozuch, J.M.L. Martin, J. Comp. Chem., 34, 2327-2344, 2013\n\n\n    Deriv               =              1\n    GGA                 =           TRUE\n    Meta                =          FALSE\n\n    Exchange Hybrid     =           TRUE\n    MP2 Hybrid          =           TRUE\n\n   => Exchange Functionals <=\n\n    0.3100     XC_GGA_X_PBE\n\n   => Exact (HF) Exchange <=\n\n    0.6900               HF \n\n   => Correlation Functionals <=\n\n    0.4400     XC_GGA_C_P86\n\n   => MP2 Correlation <=\n\n    MP2 SCS Hybrid      =           TRUE\n    MP2 OS Alpha        =       0.520000\n    MP2 SS Alpha        =       0.220000\n\n   => LibXC Density Thresholds  <==\n\n    XC_GGA_C_P86:  1.00E-25 \n    XC_GGA_X_PBE:  1.00E-32 \n\n   => VV10 Non-Local Parameters <=\n\n    VV10 B              =     1.2800E+01\n    VV10 C              =     9.3000E-03\n\n   => Molecular Quadrature <=\n\n    Radial Scheme          =       TREUTLER\n    Pruning Scheme         =           NONE\n    Nuclear Scheme         =       TREUTLER\n\n    BS radius alpha        =              1\n    Pruning alpha          =              1\n    Radial Points          =             75\n    Spherical Points       =            302\n    Total Points           =         337619\n    Total Blocks           =           2518\n    Max Points             =            256\n    Max Functions          =            255\n    Weights Tolerance      =       1.00E-15\n\n   => Loading Basis Set <=\n\n    Name: (DEF2-SVPD AUX)\n    Role: JKFIT\n    Keyword: DF_BASIS_SCF\n    atoms 1, 3, 7, 9-10 entry N          line   258 file /home/ubuntu/pk/Applications/miniconda3/envs/psi4-1.4a2.dev923/share/psi4/basis/def2-universal-jkfit.gbs \n    atoms 2, 4-5, 8, 11 entry C          line   198 file /home/ubuntu/pk/Applications/miniconda3/envs/psi4-1.4a2.dev923/share/psi4/basis/def2-universal-jkfit.gbs \n    atoms 6             entry O          line   318 file /home/ubuntu/pk/Applications/miniconda3/envs/psi4-1.4a2.dev923/share/psi4/basis/def2-universal-jkfit.gbs \n    atoms 12-16         entry H          line    18 file /home/ubuntu/pk/Applications/miniconda3/envs/psi4-1.4a2.dev923/share/psi4/basis/def2-universal-jkfit.gbs \n\n  ==> Integral Setup <==\n\n  DFHelper Memory: AOs need 0.493 GiB; user supplied 137.736 GiB. Using in-core AOs.\n\n  ==> MemDFJK: Density-Fitted J/K Matrices <==\n\n    J tasked:                   Yes\n    K tasked:                   Yes\n    wK tasked:                   No\n    OpenMP threads:              32\n    Memory [MiB]:            141041\n    Algorithm:                 Core\n    Schwarz Cutoff:           1E-12\n    Mask sparsity (%):       4.4471\n    Fitting Condition:        1E-10\n\n   => Auxiliary Basis Set <=\n\n  Basis Set: (DEF2-SVPD AUX)\n    Blend: DEF2-UNIVERSAL-JKFIT\n    Number of shells: 305\n    Number of basis function: 927\n    Number of Cartesian functions: 1103\n    Spherical Harmonics?: true\n    Max angular momentum: 4\n\n  Cached 100.0% of DFT collocation blocks in 1.963 [GiB].\n\n  Minimum eigenvalue in the overlap matrix is 3.3258012337E-05.\n  Reciprocal condition number of the overlap matrix is 2.8121585556E-06.\n    Using symmetric orthogonalization.\n\n  ==> Pre-Iterations <==\n\n  SCF Guess: Superposition of Atomic Potentials (doi:10.1021/acs.jctc.8b01089).\n\n  ==> SAP guess <==\n\n   => Molecular Quadrature <=\n\n    Radial Scheme          =       TREUTLER\n    Pruning Scheme         =           NONE\n    Nuclear Scheme         =       TREUTLER\n\n    BS radius alpha        =              1\n    Pruning alpha          =              1\n    Radial Points          =             75\n    Spherical Points       =            302\n    Total Points           =         337619\n    Total Blocks           =           2518\n    Max Points             =            256\n    Max Functions          =            255\n    Weights Tolerance      =       1.00E-15\n\n   -------------------------------------------------------\n    Irrep   Nso     Nmo     Nalpha   Nbeta   Ndocc  Nsocc\n   -------------------------------------------------------\n     A        263     263      39      39      39       0\n   -------------------------------------------------------\n    Total     263     263      39      39      39       0\n   -------------------------------------------------------\n\n  ==> Iterations <==\n\n                           Total Energy        Delta E     RMS |[F,P]|\n\n   @DF-RKS iter   1:  -535.40209928880233   -5.35402e+02   1.18900e-02 DIIS\n   @DF-RKS iter   2:  -516.93073414215633    1.84714e+01   2.14951e-02 DIIS\n   @DF-RKS iter   3:  -539.61374803549757   -2.26830e+01   3.70264e-03 DIIS\n   @DF-RKS iter   4:  -539.92673335562654   -3.12985e-01   2.60044e-03 DIIS\n   @DF-RKS iter   5:  -540.14009157529813   -2.13358e-01   3.27478e-04 DIIS\n   @DF-RKS iter   6:  -540.14330654556125   -3.21497e-03   2.27081e-04 DIIS\n   @DF-RKS iter   7:  -540.14508221824622   -1.77567e-03   4.91905e-05 DIIS\n   @DF-RKS iter   8:  -540.14522143953980   -1.39221e-04   2.87896e-05 DIIS\n   @DF-RKS iter   9:  -540.14526104234972   -3.96028e-05   7.80336e-06 DIIS\n   @DF-RKS iter  10:  -540.14526602264039   -4.98029e-06   2.32807e-06 DIIS\n   @DF-RKS iter  11:  -540.14526656186683   -5.39226e-07   9.93245e-07 DIIS\n  Energy and wave function converged.\n\n\n  ==> Post-Iterations <==\n\n    Orbital Energies [Eh]\n    ---------------------\n\n    Doubly Occupied:                                                      \n\n       1A    -19.971472     2A    -15.154642     3A    -15.153243  \n       4A    -15.141824     5A    -15.089240     6A    -15.080402  \n       7A    -10.983437     8A    -10.945146     9A    -10.916949  \n      10A    -10.898931    11A    -10.839342    12A     -1.257983  \n      13A     -1.225148    14A     -1.206349    15A     -1.103569  \n      16A     -1.083173    17A     -1.054278    18A     -0.930768  \n      19A     -0.820283    20A     -0.802562    21A     -0.758514  \n      22A     -0.733967    23A     -0.676936    24A     -0.669799  \n      25A     -0.642839    26A     -0.614411    27A     -0.595289  \n      28A     -0.570035    29A     -0.543052    30A     -0.541486  \n      31A     -0.540282    32A     -0.498557    33A     -0.427013  \n      34A     -0.402887    35A     -0.382380    36A     -0.377777  \n      37A     -0.369426    38A     -0.366248    39A     -0.272934  \n\n    Virtual:                                                              \n\n      40A      0.050576    41A      0.065456    42A      0.071281  \n      43A      0.078909    44A      0.097446    45A      0.098329  \n      46A      0.115808    47A      0.123348    48A      0.135530  \n      49A      0.142544    50A      0.160190    51A      0.165115  \n      52A      0.182147    53A      0.192435    54A      0.199153  \n      55A      0.207481    56A      0.208974    57A      0.221697  \n      58A      0.236111    59A      0.241741    60A      0.258519  \n      61A      0.269862    62A      0.273651    63A      0.281297  \n      64A      0.285237    65A      0.298520    66A      0.307652  \n      67A      0.311428    68A      0.325792    69A      0.341815  \n      70A      0.344900    71A      0.346549    72A      0.356386  \n      73A      0.358479    74A      0.361062    75A      0.383497  \n      76A      0.386902    77A      0.392422    78A      0.392859  \n      79A      0.400367    80A      0.407656    81A      0.408768  \n      82A      0.421418    83A      0.424684    84A      0.434596  \n      85A      0.440458    86A      0.447985    87A      0.452383  \n      88A      0.468994    89A      0.473224    90A      0.482265  \n      91A      0.485088    92A      0.492675    93A      0.500424  \n      94A      0.507837    95A      0.513764    96A      0.526400  \n      97A      0.537211    98A      0.540329    99A      0.555613  \n     100A      0.563231   101A      0.567607   102A      0.590898  \n     103A      0.598914   104A      0.605616   105A      0.619186  \n     106A      0.626957   107A      0.645490   108A      0.649838  \n     109A      0.658641   110A      0.662035   111A      0.667484  \n     112A      0.685957   113A      0.695578   114A      0.698085  \n     115A      0.701299   116A      0.710757   117A      0.715753  \n     118A      0.729915   119A      0.739446   120A      0.751029  \n     121A      0.762691   122A      0.770334   123A      0.774443  \n     124A      0.783404   125A      0.797278   126A      0.803872  \n     127A      0.813189   128A      0.819311   129A      0.826537  \n     130A      0.835260   131A      0.842501   132A      0.850255  \n     133A      0.852203   134A      0.862747   135A      0.870066  \n     136A      0.893420   137A      0.896188   138A      0.903277  \n     139A      0.908197   140A      0.916819   141A      0.934312  \n     142A      0.958271   143A      0.975579   144A      0.986923  \n     145A      1.011634   146A      1.023023   147A      1.035094  \n     148A      1.050027   149A      1.093828   150A      1.139898  \n     151A      1.144780   152A      1.166707   153A      1.182352  \n     154A      1.191812   155A      1.213950   156A      1.221773  \n     157A      1.240658   158A      1.248172   159A      1.272848  \n     160A      1.297545   161A      1.312284   162A      1.331460  \n     163A      1.336365   164A      1.354206   165A      1.367238  \n     166A      1.385620   167A      1.409263   168A      1.423799  \n     169A      1.432587   170A      1.470898   171A      1.478933  \n     172A      1.487362   173A      1.532928   174A      1.589773  \n     175A      1.634420   176A      1.652872   177A      1.694678  \n     178A      1.715715   179A      1.721472   180A      1.729126  \n     181A      1.749791   182A      1.779499   183A      1.790365  \n     184A      1.807876   185A      1.817910   186A      1.852983  \n     187A      1.861491   188A      1.876797   189A      1.898994  \n     190A      1.910669   191A      1.925466   192A      1.936426  \n     193A      1.943963   194A      1.953526   195A      1.958249  \n     196A      1.973726   197A      2.000032   198A      2.005224  \n     199A      2.014822   200A      2.058818   201A      2.064038  \n     202A      2.077712   203A      2.094730   204A      2.097938  \n     205A      2.144983   206A      2.165601   207A      2.177579  \n     208A      2.186898   209A      2.212999   210A      2.246118  \n     211A      2.267896   212A      2.268291   213A      2.275617  \n     214A      2.300228   215A      2.308967   216A      2.315817  \n     217A      2.325157   218A      2.345531   219A      2.387007  \n     220A      2.453225   221A      2.463420   222A      2.514149  \n     223A      2.526845   224A      2.545860   225A      2.607836  \n     226A      2.624647   227A      2.665637   228A      2.683285  \n     229A      2.709333   230A      2.730323   231A      2.750731  \n     232A      2.785603   233A      2.792857   234A      2.799615  \n     235A      2.825609   236A      2.923784   237A      2.946237  \n     238A      2.964423   239A      3.008860   240A      3.017454  \n     241A      3.049163   242A      3.073498   243A      3.101865  \n     244A      3.141895   245A      3.174672   246A      3.177640  \n     247A      3.240652   248A      3.279345   249A      3.293106  \n     250A      3.397460   251A      3.434212   252A      3.443541  \n     253A      3.476935   254A      3.489012   255A      3.547868  \n     256A      3.588004   257A      3.615112   258A      3.711581  \n     259A      3.772512   260A      3.890449   261A      3.928853  \n     262A      3.970904   263A      4.153029  \n\n    Final Occupation by Irrep:\n              A \n    DOCC [    39 ]\n\n  @DF-RKS Final Energy:  -540.14526656186683\n\n   => Energetics <=\n\n    Nuclear Repulsion Energy =            594.6969861901528702\n    One-Electron Energy =               -1914.3393323693428556\n    Two-Electron Energy =                 801.9914613235984007\n    DFT Exchange-Correlation Energy =     -22.5991338864873086\n    Empirical Dispersion Energy =           0.0000000000000000\n    VV10 Nonlocal Energy =                  0.1047521802121217\n    Total Energy =                       -540.1452665618668334\n\nComputation Completed\n\n\nProperties will be evaluated at   0.000000,   0.000000,   0.000000 [a0]\n\nProperties computed using the SCF density matrix\n\n  Nuclear Dipole Moment: [e a0]\n     X:    -2.6175      Y:     4.4557      Z:     1.0936\n\n  Electronic Dipole Moment: [e a0]\n     X:     1.3139      Y:    -1.9126      Z:    -0.7638\n\n  Dipole Moment: [e a0]\n     X:    -1.3036      Y:     2.5430      Z:     0.3298     Total:     2.8766\n\n  Dipole Moment: [D]\n     X:    -3.3134      Y:     6.4637      Z:     0.8383     Total:     7.3117\n\n\n*** tstop() called on bignimbus at Mon May 17 02:02:54 2021\nModule time:\n\tuser time   =     584.99 seconds =       9.75 minutes\n\tsystem time =      12.36 seconds =       0.21 minutes\n\ttotal time  =         20 seconds =       0.33 minutes\nTotal time:\n\tuser time   =     584.99 seconds =       9.75 minutes\n\tsystem time =      12.36 seconds =       0.21 minutes\n\ttotal time  =         20 seconds =       0.33 minutes\n\n*** tstart() called on bignimbus\n*** at Mon May 17 02:02:54 2021\n\n   => Loading Basis Set <=\n\n    Name: (DEF2-SVPD AUX)\n    Role: RIFIT\n    Keyword: DF_BASIS_MP2\n    atoms 1, 3, 7, 9-10 entry N          line   233 file /home/ubuntu/pk/Applications/miniconda3/envs/psi4-1.4a2.dev923/share/psi4/basis/def2-svpd-ri.gbs \n    atoms 2, 4-5, 8, 11 entry C          line   185 file /home/ubuntu/pk/Applications/miniconda3/envs/psi4-1.4a2.dev923/share/psi4/basis/def2-svpd-ri.gbs \n    atoms 6             entry O          line   281 file /home/ubuntu/pk/Applications/miniconda3/envs/psi4-1.4a2.dev923/share/psi4/basis/def2-svpd-ri.gbs \n    atoms 12-16         entry H          line    22 file /home/ubuntu/pk/Applications/miniconda3/envs/psi4-1.4a2.dev923/share/psi4/basis/def2-svpd-ri.gbs \n\n\t --------------------------------------------------------\n\t                          DF-MP2                         \n\t      2nd-Order Density-Fitted Moller-Plesset Theory     \n\t              RMP2 Wavefunction,  32 Threads             \n\t                                                         \n\t        Rob Parrish, Justin Turney, Andy Simmonett,      \n\t           Ed Hohenstein, and C. David Sherrill          \n\t --------------------------------------------------------\n\n   => Auxiliary Basis Set <=\n\n  Basis Set: (DEF2-SVPD AUX)\n    Blend: DEF2-SVPD-RI\n    Number of shells: 265\n    Number of basis function: 819\n    Number of Cartesian functions: 950\n    Spherical Harmonics?: true\n    Max angular momentum: 3\n\n\t --------------------------------------------------------\n\t                 NBF =   263, NAUX =   819\n\t --------------------------------------------------------\n\t   CLASS    FOCC     OCC    AOCC    AVIR     VIR    FVIR\n\t   PAIRS       0      39      39     224     224       0\n\t --------------------------------------------------------\n\n\t-----------------------------------------------------------\n\t ==================> DF-MP2 Energies <==================== \n\t-----------------------------------------------------------\n\t Reference Energy          =    -540.1452665618668334 [Eh]\n\t Singles Energy            =      -0.0000000000000000 [Eh]\n\t Same-Spin Energy          =      -0.5539423162042209 [Eh]\n\t Opposite-Spin Energy      =      -1.4237448781274786 [Eh]\n\t Correlation Energy        =      -1.9776871943316996 [Eh]\n\t Total Energy              =    -542.1229537561985126 [Eh]\n\t-----------------------------------------------------------\n\t ================> DF-SCS-MP2 Energies <================== \n\t-----------------------------------------------------------\n\t SCS Same-Spin Scale       =       0.2200000000000000 [-]\n\t SCS Opposite-Spin Scale   =       0.5200000000000000 [-]\n\t SCS Same-Spin Energy      =      -0.1218673095649286 [Eh]\n\t SCS Opposite-Spin Energy  =      -0.7403473366262889 [Eh]\n\t SCS Correlation Energy    =      -1.8931412924877147 [Eh]\n\t SCS Total Energy          =    -542.0384078543545456 [Eh]\n\t-----------------------------------------------------------\n\n\n\n    DSD-PBEP86-NL Energy Summary\n    ----------------------------\n    DFT Reference Energy                  =  -540.1452665618668334\n    Scaled MP2 Correlation                =    -0.8622146461912175\n    @Final double-hybrid DFT total energy =  -541.0074812080580386\n\n\n*** tstop() called on bignimbus at Mon May 17 02:02:56 2021\nModule time:\n\tuser time   =      48.04 seconds =       0.80 minutes\n\tsystem time =       1.11 seconds =       0.02 minutes\n\ttotal time  =          2 seconds =       0.03 minutes\nTotal time:\n\tuser time   =     633.07 seconds =      10.55 minutes\n\tsystem time =      13.47 seconds =       0.22 minutes\n\ttotal time  =         22 seconds =       0.37 minutes\n\n    Psi4 stopped on: Monday, 17 May 2021 02:02AM\n    Psi4 wall time for execution: 0:00:22.47\n\n*** Psi4 exiting successfully. Buy a developer a beer!\n",
 "stderr": null,
 "success": true,
 "error": null,
 "tag": "dsd-pbep86-nl def2-svpd ggg_a"
}