{
 "id": null,
 "schema_name": "qcschema_output",
 "schema_version": 1,
 "molecule": {
  "validated": true,
  "symbols": [
   "N",
   "C",
   "N",
   "C",
   "C",
   "O",
   "N",
   "C",
   "N",
   "N",
   "C",
   "H",
   "H",
   "H",
   "H",
   "H"
  ],
  "geometry": [
   1.9795091944628955,
   2.1064834459358144,
   -3.2710258001379717,
   3.442157215567254,
   0.04479224306132246,
   -3.8587306251553546,
   3.037755824719278,
   -1.9205229274148177,
   -2.447105209438357,
   1.1329118902577873,
   -1.157073572729854,
   -0.8011537541645827,
   -0.012262141769655663,
   -2.415631172284768,
   1.2151840216989083,
   0.2787556815508495,
   -4.558580598553946,
   1.9767436502584184,
   -1.7942738780763892,
   -0.8301509530256518,
   2.4756313473792826,
   -2.3895376075956043,
   1.6208238316931525,
   1.8860367962364304,
   -4.060055502500323,
   2.879381431248068,
   3.327897829960767,
   -1.3464087863428829,
   2.818910195233415,
   -0.06605029136148675,
   0.4469413067165973,
   1.3279162822471884,
   -1.2830339161563362,
   1.9190379584482444,
   3.80723695884786,
   -4.140299817848581,
   -2.720239679550724,
   -1.6994249707362516,
   3.9722944387418746,
   4.817877834900553,
   0.1317196448323844,
   -5.370511525521616,
   -4.434221275340973,
   4.678400702683921,
   2.8233409544635233,
   -4.866968558070816,
   2.102703993684897,
   4.9095985969689675
  ],
  "name": "C5H5N5O",
  "molecular_charge": 0.0,
  "molecular_multiplicity": 1,
  "masses": [
   14.00307400443,
   12.0,
   14.00307400443,
   12.0,
   12.0,
   15.99491461957,
   14.00307400443,
   12.0,
   14.00307400443,
   14.00307400443,
   12.0,
   1.00782503223,
   1.00782503223,
   1.00782503223,
   1.00782503223,
   1.00782503223
  ],
  "real": [
   true,
   true,
   true,
   true,
   true,
   true,
   true,
   true,
   true,
   true,
   true,
   true,
   true,
   true,
   true,
   true
  ],
  "atom_labels": [
   "",
   "",
   "",
   "",
   "",
   "",
   "",
   "",
   "",
   "",
   "",
   "",
   "",
   "",
   "",
   ""
  ],
  "atomic_numbers": [
   7,
   6,
   7,
   6,
   6,
   8,
   7,
   6,
   7,
   7,
   6,
   1,
   1,
   1,
   1,
   1
  ],
  "mass_numbers": [
   14,
   12,
   14,
   12,
   12,
   16,
   14,
   12,
   14,
   14,
   12,
   1,
   1,
   1,
   1,
   1
  ],
  "fragments": [
   [
    0,
    1,
    2,
    3,
    4,
    5,
    6,
    7,
    8,
    9,
    10,
    11,
    12,
    13,
    14,
    15
   ]
  ],
  "fragment_charges": [
   0.0
  ],
  "fragment_multiplicities": [
   1
  ],
  "fix_com": false,
  "fix_orientation": false,
  "provenance": {
   "creator": "QCElemental",
   "version": "v0.19.0",
   "routine": "qcelemental.molparse.from_string"
  }
 },
 "driver": "energy",
 "model": {
  "method": "dsd-pbep86-nl",
  "basis": "def2-tzvpd"
 },
 "keywords": {
  "guess": "SAP",
  "dft_vv10_postscf": "true"
 },
 "protocols": {},
 "extras": {
  "qcvars": {
   "CURRENT DIPOLE X": -3.262210504681813,
   "CURRENT DIPOLE Y": 6.370632840598076,
   "CURRENT DIPOLE Z": 0.8275657095816668,
   "CURRENT ENERGY": -541.8148668902496,
   "CURRENT REFERENCE ENERGY": -540.7188973976482,
   "DFT FUNCTIONAL TOTAL ENERGY": -540.7188973976482,
   "DFT TOTAL ENERGY": -541.8148668902496,
   "DFT VV10 ENERGY": 0.1047622877123342,
   "DFT XC ENERGY": -22.653061369053468,
   "DOUBLE-HYBRID CORRECTION ENERGY": -1.0959694926013928,
   "DSD-PBEP86-NL DOUBLE-HYBRID CORRECTION ENERGY": -1.0959694926013928,
   "DSD-PBEP86-NL TOTAL ENERGY": -541.8148668902496,
   "NUCLEAR REPULSION ENERGY": 594.6969861901529,
   "ONE-ELECTRON ENERGY": -1915.659764287345,
   "PCM POLARIZATION ENERGY": 0.0,
   "PE ENERGY": 0.0,
   "SCF DIPOLE X": -3.262210504681813,
   "SCF DIPOLE Y": 6.370632840598076,
   "SCF DIPOLE Z": 0.8275657095816668,
   "SCF ITERATION ENERGY": -540.8236816464091,
   "SCF ITERATIONS": 12.0,
   "SCF TOTAL ENERGY": -540.7188973976482,
   "TWO-ELECTRON ENERGY": 802.7921797808852,
   "XC GRID RADIAL POINTS": 75.0,
   "XC GRID SPHERICAL POINTS": 302.0,
   "XC GRID TOTAL POINTS": 338285.0,
   "CURRENT DIPOLE": [
    -1.283452368842548,
    2.5063998164916814,
    0.3255894028944808
   ],
   "SCF DIPOLE": [
    -1.283452368842548,
    2.5063998164916814,
    0.3255894028944808
   ]
  }
 },
 "provenance": {
  "creator": "Psi4",
  "version": "1.4a2.dev923",
  "routine": "psi4.schema_runner.run_qcschema",
  "memory": 200.0,
  "cpu": "AMD EPYC Processor (with IBPB)",
  "hostname": "bignimbus",
  "qcengine_version": "v0.17.0",
  "username": "ubuntu",
  "nthreads": 32,
  "wall_time": 29.23509645462036
 },
 "properties": {
  "calcinfo_nbasis": 455,
  "calcinfo_nmo": 455,
  "calcinfo_nalpha": 39,
  "calcinfo_nbeta": 39,
  "calcinfo_natom": 16,
  "nuclear_repulsion_energy": 594.6969861901529,
  "return_energy": -541.8148668902496,
  "scf_one_electron_energy": -1915.659764287345,
  "scf_two_electron_energy": 802.7921797808852,
  "scf_vv10_energy": 0.1047622877123342,
  "scf_xc_energy": -22.653061369053468,
  "scf_dipole_moment": [
   -1.283452368842548,
   2.5063998164916814,
   0.3255894028944808
  ],
  "scf_total_energy": -540.7188973976482,
  "scf_iterations": 12
 },
 "wavefunction": null,
 "return_result": -541.8148668902496,
 "stdout": "\n    -----------------------------------------------------------------------\n          Psi4: An Open-Source Ab Initio Electronic Structure Package\n                               Psi4 1.4a2.dev923 \n\n                         Git: Rev {master} 5de566e \n\n\n    D. G. A. Smith, L. A. Burns, A. C. Simmonett, R. M. Parrish,\n    M. C. Schieber, R. Galvelis, P. Kraus, H. Kruse, R. Di Remigio,\n    A. Alenaizan, A. M. James, S. Lehtola, J. P. Misiewicz, M. Scheurer,\n    R. A. Shaw, J. B. Schriber, Y. Xie, Z. L. Glick, D. A. Sirianni,\n    J. S. O'Brien, J. M. Waldrop, A. Kumar, E. G. Hohenstein,\n    B. P. Pritchard, B. R. Brooks, H. F. Schaefer III, A. Yu. Sokolov,\n    K. Patkowski, A. E. DePrince III, U. Bozkaya, R. A. King,\n    F. A. Evangelista, J. M. Turney, T. D. Crawford, C. D. Sherrill,\n    J. Chem. Phys. 152(18) 184108 (2020). https://doi.org/10.1063/5.0006002\n\n                            Additional Code Authors\n    E. T. Seidl, C. L. Janssen, E. F. Valeev, M. L. Leininger,\n    J. F. Gonthier, R. M. Richard, H. R. McAlexander, M. Saitow, X. Wang,\n    P. Verma, and M. H. Lechner\n\n             Previous Authors, Complete List of Code Contributors,\n                       and Citations for Specific Modules\n    https://github.com/psi4/psi4/blob/master/codemeta.json\n    https://github.com/psi4/psi4/graphs/contributors\n    http://psicode.org/psi4manual/master/introduction.html#citing-psifour\n\n    -----------------------------------------------------------------------\n\n\n    Psi4 started on: Sunday, 16 May 2021 04:03PM\n\n    Process ID: 2406395\n    Host:       bignimbus\n    PSIDATADIR: /home/ubuntu/pk/Applications/miniconda3/envs/psi4-1.4a2.dev923/share/psi4\n    Memory:     186.3 GiB\n    Threads:    32\n    \n  ==> Input QCSchema <==\n\n--------------------------------------------------------------------------\n{'driver': 'energy',\n 'extras': {},\n 'id': None,\n 'keywords': {'dft_vv10_postscf': 'true', 'guess': 'SAP'},\n 'model': {'basis': 'def2-tzvpd', 'method': 'dsd-pbep86-nl'},\n 'molecule': {'atom_labels': ['', '', '', '', '', '', '', '', '', '', '', '', '', '', '', ''],\n              'atomic_numbers': [7, 6, 7, 6, 6, 8, 7, 6, 7, 7, 6, 1, 1, 1, 1, 1],\n              'fix_com': False,\n              'fix_orientation': False,\n              'fragment_charges': [0.0],\n              'fragment_multiplicities': [1],\n              'fragments': [[0, 1, 2, 3, 4, 5, 6, 7, 8, 9, 10, 11, 12, 13, 14, 15]],\n              'geometry': [1.9795091944628904, 2.10648344593581, -3.2710258001380055, 3.4421572155672493,\n                           0.044792243061317905, -3.8587306251553883, 3.037755824719273, -1.9205229274148223,\n                           -2.4471052094383907, 1.1329118902577822, -1.1570735727298587, -0.8011537541646163,\n                           -0.012262141769660673, -2.4156311722847725, 1.2151840216988745, 0.2787556815508445,\n                           -4.5585805985539505, 1.9767436502583846, -1.7942738780763943, -0.8301509530256563,\n                           2.475631347379249, -2.389537607595609, 1.6208238316931478, 1.8860367962363966,\n                           -4.060055502500329, 2.8793814312480634, 3.327897829960733, -1.346408786342888,\n                           2.8189101952334106, -0.06605029136152041, 0.4469413067165923, 1.3279162822471837,\n                           -1.28303391615637, 1.9190379584482393, 3.8072369588478554, -4.140299817848614,\n                           -2.720239679550729, -1.6994249707362563, 3.972294438741841, 4.817877834900548,\n                           0.13171964483237986, -5.37051152552165, -4.434221275340978, 4.678400702683916,\n                           2.8233409544634895, -4.8669685580708215, 2.1027039936848926, 4.909598596968934],\n              'mass_numbers': [14, 12, 14, 12, 12, 16, 14, 12, 14, 14, 12, 1, 1, 1, 1, 1],\n              'masses': [14.00307400443, 12.0, 14.00307400443, 12.0, 12.0, 15.99491461957, 14.00307400443, 12.0,\n                         14.00307400443, 14.00307400443, 12.0, 1.00782503223, 1.00782503223, 1.00782503223,\n                         1.00782503223, 1.00782503223],\n              'molecular_charge': 0.0,\n              'molecular_multiplicity': 1,\n              'name': 'C5H5N5O',\n              'provenance': {'creator': 'QCElemental',\n                             'routine': 'qcelemental.molparse.from_string',\n                             'version': 'v0.19.0'},\n              'real': [True, True, True, True, True, True, True, True, True, True, True, True, True, True, True, True],\n              'symbols': ['N', 'C', 'N', 'C', 'C', 'O', 'N', 'C', 'N', 'N', 'C', 'H', 'H', 'H', 'H', 'H'],\n              'validated': True},\n 'protocols': {},\n 'provenance': {'creator': 'QCElemental', 'routine': 'qcelemental.models.results', 'version': 'v0.17.0'},\n 'schema_name': 'qcschema_input',\n 'schema_version': 1}\n--------------------------------------------------------------------------\n\nScratch directory: /home/ubuntu/pk/scratch/tmp7ywob2mx_psi_scratch/\n\n*** tstart() called on bignimbus\n*** at Sun May 16 16:03:50 2021\n\n   => Loading Basis Set <=\n\n    Name: DEF2-TZVPD\n    Role: ORBITAL\n    Keyword: BASIS\n    atoms 1, 3, 7, 9-10 entry N          line   171 file /home/ubuntu/pk/Applications/miniconda3/envs/psi4-1.4a2.dev923/share/psi4/basis/def2-tzvpd.gbs \n    atoms 2, 4-5, 8, 11 entry C          line   134 file /home/ubuntu/pk/Applications/miniconda3/envs/psi4-1.4a2.dev923/share/psi4/basis/def2-tzvpd.gbs \n    atoms 6             entry O          line   208 file /home/ubuntu/pk/Applications/miniconda3/envs/psi4-1.4a2.dev923/share/psi4/basis/def2-tzvpd.gbs \n    atoms 12-16         entry H          line    14 file /home/ubuntu/pk/Applications/miniconda3/envs/psi4-1.4a2.dev923/share/psi4/basis/def2-tzvpd.gbs \n\n   => DSD-PBEP86-NL: Empirical Dispersion <=\n\n    Grimme's -NL (DFT plus VV10 correlation) \n    Hujo, W.; Grimme, S; (2011), J. Chem. Theory Comput.; 7:3866\n    Parametrisation from:    M. K. Kesharwani, A. Karton, J.M. L. Martin, J. Chem. Theory Comput. 12, 444-454, 2016\n\n         b =      12.800000\n         c =       0.009300\n\n\n         ---------------------------------------------------------\n                                   SCF\n               by Justin Turney, Rob Parrish, Andy Simmonett\n                          and Daniel G. A. Smith\n                              RKS Reference\n                       32 Threads, 190734 MiB Core\n         ---------------------------------------------------------\n\n  ==> Geometry <==\n\n    Molecular point group: c1\n    Full point group: C1\n\n    Geometry (in Bohr), charge = 0, multiplicity = 1:\n\n       Center              X                  Y                   Z               Mass       \n    ------------   -----------------  -----------------  -----------------  -----------------\n         N            1.979509194463     2.106483445936    -3.271025800138    14.003074004430\n         C            3.442157215567     0.044792243061    -3.858730625155    12.000000000000\n         N            3.037755824719    -1.920522927415    -2.447105209438    14.003074004430\n         C            1.132911890258    -1.157073572730    -0.801153754165    12.000000000000\n         C           -0.012262141770    -2.415631172285     1.215184021699    12.000000000000\n         O            0.278755681551    -4.558580598554     1.976743650258    15.994914619570\n         N           -1.794273878076    -0.830150953026     2.475631347379    14.003074004430\n         C           -2.389537607596     1.620823831693     1.886036796236    12.000000000000\n         N           -4.060055502500     2.879381431248     3.327897829961    14.003074004430\n         N           -1.346408786343     2.818910195233    -0.066050291361    14.003074004430\n         C            0.446941306717     1.327916282247    -1.283033916156    12.000000000000\n         H            1.919037958448     3.807236958848    -4.140299817849     1.007825032230\n         H           -2.720239679551    -1.699424970736     3.972294438742     1.007825032230\n         H            4.817877834901     0.131719644832    -5.370511525522     1.007825032230\n         H           -4.434221275341     4.678400702684     2.823340954464     1.007825032230\n         H           -4.866968558071     2.102703993685     4.909598596969     1.007825032230\n\n  Running in c1 symmetry.\n\n  Rotational constants: A =      0.06486  B =      0.03693  C =      0.02354 [cm^-1]\n  Rotational constants: A =   1944.44089  B =   1107.15421  C =    705.76789 [MHz]\n  Nuclear repulsion =  594.696986190152870\n\n  Charge       = 0\n  Multiplicity = 1\n  Electrons    = 78\n  Nalpha       = 39\n  Nbeta        = 39\n\n  ==> Algorithm <==\n\n  SCF Algorithm Type is DF.\n  DIIS enabled.\n  MOM disabled.\n  Fractional occupation disabled.\n  Guess Type is SAP.\n  Energy threshold   = 1.00e-06\n  Density threshold  = 1.00e-06\n  Integral threshold = 0.00e+00\n\n  ==> Primary Basis <==\n\n  Basis Set: DEF2-TZVPD\n    Blend: DEF2-TZVPD\n    Number of shells: 169\n    Number of basis function: 455\n    Number of Cartesian functions: 521\n    Spherical Harmonics?: true\n    Max angular momentum: 3\n\n  ==> DFT Potential <==\n\n   => Composite Functional: DSD-PBEP86-NL <= \n\n    DSD-PBEP86-NL (D3BJ parameters) VV10 SCS Double Hybrid XC Functional\n\n    S. Kozuch, J.M.L. Martin, J. Comp. Chem., 34, 2327-2344, 2013\n\n\n    Deriv               =              1\n    GGA                 =           TRUE\n    Meta                =          FALSE\n\n    Exchange Hybrid     =           TRUE\n    MP2 Hybrid          =           TRUE\n\n   => Exchange Functionals <=\n\n    0.3100     XC_GGA_X_PBE\n\n   => Exact (HF) Exchange <=\n\n    0.6900               HF \n\n   => Correlation Functionals <=\n\n    0.4400     XC_GGA_C_P86\n\n   => MP2 Correlation <=\n\n    MP2 SCS Hybrid      =           TRUE\n    MP2 OS Alpha        =       0.520000\n    MP2 SS Alpha        =       0.220000\n\n   => LibXC Density Thresholds  <==\n\n    XC_GGA_C_P86:  1.00E-25 \n    XC_GGA_X_PBE:  1.00E-32 \n\n   => VV10 Non-Local Parameters <=\n\n    VV10 B              =     1.2800E+01\n    VV10 C              =     9.3000E-03\n\n   => Molecular Quadrature <=\n\n    Radial Scheme          =       TREUTLER\n    Pruning Scheme         =           NONE\n    Nuclear Scheme         =       TREUTLER\n\n    BS radius alpha        =              1\n    Pruning alpha          =              1\n    Radial Points          =             75\n    Spherical Points       =            302\n    Total Points           =         338285\n    Total Blocks           =           2516\n    Max Points             =            256\n    Max Functions          =            422\n    Weights Tolerance      =       1.00E-15\n\n   => Loading Basis Set <=\n\n    Name: (DEF2-TZVPD AUX)\n    Role: JKFIT\n    Keyword: DF_BASIS_SCF\n    atoms 1, 3, 7, 9-10 entry N          line   258 file /home/ubuntu/pk/Applications/miniconda3/envs/psi4-1.4a2.dev923/share/psi4/basis/def2-universal-jkfit.gbs \n    atoms 2, 4-5, 8, 11 entry C          line   198 file /home/ubuntu/pk/Applications/miniconda3/envs/psi4-1.4a2.dev923/share/psi4/basis/def2-universal-jkfit.gbs \n    atoms 6             entry O          line   318 file /home/ubuntu/pk/Applications/miniconda3/envs/psi4-1.4a2.dev923/share/psi4/basis/def2-universal-jkfit.gbs \n    atoms 12-16         entry H          line    18 file /home/ubuntu/pk/Applications/miniconda3/envs/psi4-1.4a2.dev923/share/psi4/basis/def2-universal-jkfit.gbs \n\n  ==> Integral Setup <==\n\n  DFHelper Memory: AOs need 1.436 GiB; user supplied 136.609 GiB. Using in-core AOs.\n\n  ==> MemDFJK: Density-Fitted J/K Matrices <==\n\n    J tasked:                   Yes\n    K tasked:                   Yes\n    wK tasked:                   No\n    OpenMP threads:              32\n    Memory [MiB]:            139887\n    Algorithm:                 Core\n    Schwarz Cutoff:           1E-12\n    Mask sparsity (%):       6.3712\n    Fitting Condition:        1E-10\n\n   => Auxiliary Basis Set <=\n\n  Basis Set: (DEF2-TZVPD AUX)\n    Blend: DEF2-UNIVERSAL-JKFIT\n    Number of shells: 305\n    Number of basis function: 927\n    Number of Cartesian functions: 1103\n    Spherical Harmonics?: true\n    Max angular momentum: 4\n\n  Cached 100.0% of DFT collocation blocks in 3.089 [GiB].\n\n  Minimum eigenvalue in the overlap matrix is 1.0190272103E-06.\n  Reciprocal condition number of the overlap matrix is 6.3792455086E-08.\n    Using symmetric orthogonalization.\n\n  ==> Pre-Iterations <==\n\n  SCF Guess: Superposition of Atomic Potentials (doi:10.1021/acs.jctc.8b01089).\n\n  ==> SAP guess <==\n\n   => Molecular Quadrature <=\n\n    Radial Scheme          =       TREUTLER\n    Pruning Scheme         =           NONE\n    Nuclear Scheme         =       TREUTLER\n\n    BS radius alpha        =              1\n    Pruning alpha          =              1\n    Radial Points          =             75\n    Spherical Points       =            302\n    Total Points           =         338285\n    Total Blocks           =           2516\n    Max Points             =            256\n    Max Functions          =            422\n    Weights Tolerance      =       1.00E-15\n\n   -------------------------------------------------------\n    Irrep   Nso     Nmo     Nalpha   Nbeta   Ndocc  Nsocc\n   -------------------------------------------------------\n     A        455     455      39      39      39       0\n   -------------------------------------------------------\n    Total     455     455      39      39      39       0\n   -------------------------------------------------------\n\n  VV10: post-SCF option active \n \n  ==> Iterations <==\n\n                           Total Energy        Delta E     RMS |[F,P]|\n\n   @DF-RKS iter   1:  -535.74149706248920   -5.35741e+02   7.49424e-03 DIIS\n   @DF-RKS iter   2:  -510.19390506381399    2.55476e+01   1.37919e-02 DIIS\n   @DF-RKS iter   3:  -540.03671091668684   -2.98428e+01   2.64590e-03 DIIS\n   @DF-RKS iter   4:  -540.53471287553509   -4.98002e-01   1.76951e-03 DIIS\n   @DF-RKS iter   5:  -540.81569016387709   -2.80977e-01   2.42426e-04 DIIS\n   @DF-RKS iter   6:  -540.82071905461908   -5.02889e-03   1.69377e-04 DIIS\n   @DF-RKS iter   7:  -540.82342624548301   -2.70719e-03   3.34977e-05 DIIS\n   @DF-RKS iter   8:  -540.82361456602052   -1.88321e-04   1.99698e-05 DIIS\n   @DF-RKS iter   9:  -540.82367175581214   -5.71898e-05   6.53773e-06 DIIS\n   @DF-RKS iter  10:  -540.82368050361481   -8.74780e-06   2.03252e-06 DIIS\n   @DF-RKS iter  11:  -540.82368151295657   -1.00934e-06   8.10650e-07 DIIS\n   @DF-RKS iter  12:  -540.82368164640911   -1.33453e-07   2.41268e-07 DIIS\n  Energy and wave function converged.\n\n  ==> Computing Non-Self-Consistent VV10 Energy Correction <==\n\n\n  ==> Post-Iterations <==\n\n    Orbital Energies [Eh]\n    ---------------------\n\n    Doubly Occupied:                                                      \n\n       1A    -19.962926     2A    -15.146355     3A    -15.144769  \n       4A    -15.133263     5A    -15.082320     6A    -15.074364  \n       7A    -10.974369     8A    -10.934940     9A    -10.909147  \n      10A    -10.889794    11A    -10.832142    12A     -1.267310  \n      13A     -1.233317    14A     -1.215226    15A     -1.112808  \n      16A     -1.091822    17A     -1.063206    18A     -0.937246  \n      19A     -0.821670    20A     -0.804707    21A     -0.760425  \n      22A     -0.730369    23A     -0.674331    24A     -0.667659  \n      25A     -0.642368    26A     -0.611341    27A     -0.593259  \n      28A     -0.565181    29A     -0.541444    30A     -0.539949  \n      31A     -0.537411    32A     -0.496466    33A     -0.428770  \n      34A     -0.401991    35A     -0.380889    36A     -0.376422  \n      37A     -0.368910    38A     -0.365231    39A     -0.271748  \n\n    Virtual:                                                              \n\n      40A      0.026412    41A      0.045373    42A      0.065130  \n      43A      0.066621    44A      0.073683    45A      0.077617  \n      46A      0.084384    47A      0.098782    48A      0.109679  \n      49A      0.113928    50A      0.120519    51A      0.123118  \n      52A      0.140071    53A      0.148054    54A      0.159106  \n      55A      0.160427    56A      0.163441    57A      0.173504  \n      58A      0.187351    59A      0.197205    60A      0.206530  \n      61A      0.212531    62A      0.218194    63A      0.223786  \n      64A      0.228082    65A      0.234413    66A      0.244954  \n      67A      0.252117    68A      0.256668    69A      0.258996  \n      70A      0.273169    71A      0.276927    72A      0.280163  \n      73A      0.283611    74A      0.289436    75A      0.297673  \n      76A      0.299811    77A      0.302535    78A      0.304625  \n      79A      0.314037    80A      0.325919    81A      0.328908  \n      82A      0.336038    83A      0.343047    84A      0.348075  \n      85A      0.349827    86A      0.352264    87A      0.359542  \n      88A      0.374737    89A      0.375888    90A      0.386304  \n      91A      0.394115    92A      0.397978    93A      0.402042  \n      94A      0.407274    95A      0.420915    96A      0.433800  \n      97A      0.437281    98A      0.440136    99A      0.448236  \n     100A      0.456713   101A      0.458882   102A      0.463516  \n     103A      0.476312   104A      0.485734   105A      0.488684  \n     106A      0.496285   107A      0.506114   108A      0.510036  \n     109A      0.512008   110A      0.527940   111A      0.531586  \n     112A      0.541373   113A      0.546727   114A      0.548088  \n     115A      0.556356   116A      0.562802   117A      0.565045  \n     118A      0.568924   119A      0.571789   120A      0.583515  \n     121A      0.593004   122A      0.597831   123A      0.605488  \n     124A      0.610736   125A      0.618268   126A      0.632437  \n     127A      0.634438   128A      0.638615   129A      0.642880  \n     130A      0.661912   131A      0.663952   132A      0.666525  \n     133A      0.672013   134A      0.680117   135A      0.687746  \n     136A      0.694309   137A      0.708368   138A      0.711451  \n     139A      0.716491   140A      0.720679   141A      0.727044  \n     142A      0.730299   143A      0.735509   144A      0.743618  \n     145A      0.756149   146A      0.759987   147A      0.766059  \n     148A      0.775411   149A      0.780796   150A      0.792520  \n     151A      0.808691   152A      0.818077   153A      0.826003  \n     154A      0.836840   155A      0.841911   156A      0.843789  \n     157A      0.851970   158A      0.854874   159A      0.869504  \n     160A      0.876183   161A      0.880236   162A      0.891109  \n     163A      0.896471   164A      0.913664   165A      0.926037  \n     166A      0.930071   167A      0.941973   168A      0.944916  \n     169A      0.957759   170A      0.968682   171A      0.981752  \n     172A      0.995099   173A      1.005135   174A      1.017619  \n     175A      1.033380   176A      1.039656   177A      1.048710  \n     178A      1.055178   179A      1.064930   180A      1.075011  \n     181A      1.080179   182A      1.086362   183A      1.108650  \n     184A      1.116403   185A      1.120155   186A      1.136287  \n     187A      1.149468   188A      1.153601   189A      1.181523  \n     190A      1.196043   191A      1.197552   192A      1.206288  \n     193A      1.214714   194A      1.228984   195A      1.232381  \n     196A      1.240536   197A      1.248512   198A      1.257871  \n     199A      1.267217   200A      1.275315   201A      1.313297  \n     202A      1.341509   203A      1.377172   204A      1.416614  \n     205A      1.430031   206A      1.431521   207A      1.439642  \n     208A      1.468772   209A      1.475962   210A      1.498591  \n     211A      1.511611   212A      1.534283   213A      1.555526  \n     214A      1.559643   215A      1.588849   216A      1.637649  \n     217A      1.642475   218A      1.680556   219A      1.682589  \n     220A      1.697999   221A      1.731622   222A      1.736969  \n     223A      1.761341   224A      1.774616   225A      1.778485  \n     226A      1.789605   227A      1.811478   228A      1.858639  \n     229A      1.891001   230A      1.899921   231A      1.907249  \n     232A      1.911320   233A      1.938872   234A      1.946915  \n     235A      1.959860   236A      1.972858   237A      1.994685  \n     238A      1.998295   239A      2.015656   240A      2.028450  \n     241A      2.045961   242A      2.056006   243A      2.060069  \n     244A      2.064686   245A      2.087198   246A      2.089383  \n     247A      2.123273   248A      2.152600   249A      2.170914  \n     250A      2.187926   251A      2.199473   252A      2.220534  \n     253A      2.244171   254A      2.296478   255A      2.314523  \n     256A      2.328832   257A      2.336246   258A      2.347269  \n     259A      2.370040   260A      2.392029   261A      2.425386  \n     262A      2.430354   263A      2.437794   264A      2.463097  \n     265A      2.481635   266A      2.507066   267A      2.515239  \n     268A      2.538662   269A      2.573294   270A      2.593901  \n     271A      2.598305   272A      2.628691   273A      2.637772  \n     274A      2.645316   275A      2.670350   276A      2.692676  \n     277A      2.712982   278A      2.722125   279A      2.728883  \n     280A      2.784375   281A      2.792365   282A      2.801801  \n     283A      2.813129   284A      2.845281   285A      2.863838  \n     286A      2.873775   287A      2.929101   288A      2.948847  \n     289A      2.956697   290A      2.980176   291A      2.990210  \n     292A      3.044911   293A      3.065197   294A      3.109991  \n     295A      3.138128   296A      3.151598   297A      3.160227  \n     298A      3.165247   299A      3.179123   300A      3.187256  \n     301A      3.220039   302A      3.233430   303A      3.242752  \n     304A      3.247056   305A      3.251040   306A      3.264539  \n     307A      3.274688   308A      3.283796   309A      3.312500  \n     310A      3.324519   311A      3.338413   312A      3.352624  \n     313A      3.375939   314A      3.389826   315A      3.399885  \n     316A      3.411466   317A      3.434883   318A      3.454974  \n     319A      3.460868   320A      3.468706   321A      3.494878  \n     322A      3.498977   323A      3.518164   324A      3.537193  \n     325A      3.544025   326A      3.571476   327A      3.581202  \n     328A      3.589163   329A      3.609760   330A      3.624747  \n     331A      3.644776   332A      3.654138   333A      3.672791  \n     334A      3.705278   335A      3.714304   336A      3.740411  \n     337A      3.747111   338A      3.769865   339A      3.777050  \n     340A      3.815387   341A      3.819309   342A      3.846004  \n     343A      3.868332   344A      3.871029   345A      3.920031  \n     346A      3.960564   347A      4.002323   348A      4.020038  \n     349A      4.036167   350A      4.108865   351A      4.153524  \n     352A      4.168844   353A      4.208103   354A      4.231704  \n     355A      4.249828   356A      4.280071   357A      4.311246  \n     358A      4.321941   359A      4.346157   360A      4.368583  \n     361A      4.414380   362A      4.443084   363A      4.451962  \n     364A      4.496838   365A      4.503551   366A      4.543697  \n     367A      4.570469   368A      4.605396   369A      4.616391  \n     370A      4.661224   371A      4.753323   372A      4.790373  \n     373A      4.846425   374A      4.872885   375A      4.898362  \n     376A      4.943152   377A      4.989460   378A      4.997861  \n     379A      5.021435   380A      5.029468   381A      5.039301  \n     382A      5.071668   383A      5.076380   384A      5.142061  \n     385A      5.143047   386A      5.174760   387A      5.197794  \n     388A      5.225208   389A      5.237282   390A      5.267970  \n     391A      5.290565   392A      5.305960   393A      5.315424  \n     394A      5.326100   395A      5.347685   396A      5.376749  \n     397A      5.382271   398A      5.394454   399A      5.402778  \n     400A      5.445748   401A      5.460609   402A      5.473881  \n     403A      5.480647   404A      5.491385   405A      5.530370  \n     406A      5.565961   407A      5.597814   408A      5.611501  \n     409A      5.627578   410A      5.647338   411A      5.675875  \n     412A      5.705202   413A      5.710342   414A      5.728374  \n     415A      5.753208   416A      5.781316   417A      5.811723  \n     418A      5.830185   419A      5.847650   420A      5.884382  \n     421A      5.915930   422A      5.955850   423A      5.959374  \n     424A      5.979147   425A      5.986976   426A      6.053022  \n     427A      6.059154   428A      6.123790   429A      6.224932  \n     430A      6.266525   431A      6.329988   432A      6.378346  \n     433A      6.436733   434A      6.526176   435A      6.542724  \n     436A      6.605568   437A      6.693177   438A      6.872904  \n     439A      6.886104   440A      7.085582   441A      7.230642  \n     442A      7.308349   443A      7.543830   444A      7.643026  \n     445A     23.631543   446A     23.869701   447A     24.045168  \n     448A     24.135259   449A     24.396403   450A     33.175557  \n     451A     33.400433   452A     33.493754   453A     33.574530  \n     454A     33.831470   455A     45.393679  \n\n    Final Occupation by Irrep:\n              A \n    DOCC [    39 ]\n\n  @DF-RKS Final Energy:  -540.71889739764822\n\n   => Energetics <=\n\n    Nuclear Repulsion Energy =            594.6969861901528702\n    One-Electron Energy =               -1915.6597642873450695\n    Two-Electron Energy =                 802.7921797808852489\n    DFT Exchange-Correlation Energy =     -22.6530613690534679\n    Empirical Dispersion Energy =           0.0000000000000000\n    VV10 Nonlocal Energy =                  0.1047622877123342\n    Total Energy =                       -540.7188973976482202\n\nComputation Completed\n\n\nProperties will be evaluated at   0.000000,   0.000000,   0.000000 [a0]\n\nProperties computed using the SCF density matrix\n\n  Nuclear Dipole Moment: [e a0]\n     X:    -2.6175      Y:     4.4557      Z:     1.0936\n\n  Electronic Dipole Moment: [e a0]\n     X:     1.3341      Y:    -1.9493      Z:    -0.7680\n\n  Dipole Moment: [e a0]\n     X:    -1.2835      Y:     2.5064      Z:     0.3256     Total:     2.8347\n\n  Dipole Moment: [D]\n     X:    -3.2622      Y:     6.3706      Z:     0.8276     Total:     7.2050\n\n\n*** tstop() called on bignimbus at Sun May 16 16:04:10 2021\nModule time:\n\tuser time   =     468.71 seconds =       7.81 minutes\n\tsystem time =      33.70 seconds =       0.56 minutes\n\ttotal time  =         20 seconds =       0.33 minutes\nTotal time:\n\tuser time   =     468.71 seconds =       7.81 minutes\n\tsystem time =      33.70 seconds =       0.56 minutes\n\ttotal time  =         20 seconds =       0.33 minutes\n\n*** tstart() called on bignimbus\n*** at Sun May 16 16:04:10 2021\n\n   => Loading Basis Set <=\n\n    Name: (DEF2-TZVPD AUX)\n    Role: RIFIT\n    Keyword: DF_BASIS_MP2\n    atoms 1, 3, 7, 9-10 entry N          line   266 file /home/ubuntu/pk/Applications/miniconda3/envs/psi4-1.4a2.dev923/share/psi4/basis/def2-tzvpd-ri.gbs \n    atoms 2, 4-5, 8, 11 entry C          line   211 file /home/ubuntu/pk/Applications/miniconda3/envs/psi4-1.4a2.dev923/share/psi4/basis/def2-tzvpd-ri.gbs \n    atoms 6             entry O          line   321 file /home/ubuntu/pk/Applications/miniconda3/envs/psi4-1.4a2.dev923/share/psi4/basis/def2-tzvpd-ri.gbs \n    atoms 12-16         entry H          line    22 file /home/ubuntu/pk/Applications/miniconda3/envs/psi4-1.4a2.dev923/share/psi4/basis/def2-tzvpd-ri.gbs \n\n\t --------------------------------------------------------\n\t                          DF-MP2                         \n\t      2nd-Order Density-Fitted Moller-Plesset Theory     \n\t              RMP2 Wavefunction,  32 Threads             \n\t                                                         \n\t        Rob Parrish, Justin Turney, Andy Simmonett,      \n\t           Ed Hohenstein, and C. David Sherrill          \n\t --------------------------------------------------------\n\n   => Auxiliary Basis Set <=\n\n  Basis Set: (DEF2-TZVPD AUX)\n    Blend: DEF2-TZVPD-RI\n    Number of shells: 336\n    Number of basis function: 1132\n    Number of Cartesian functions: 1395\n    Spherical Harmonics?: true\n    Max angular momentum: 4\n\n\t --------------------------------------------------------\n\t                 NBF =   455, NAUX =  1132\n\t --------------------------------------------------------\n\t   CLASS    FOCC     OCC    AOCC    AVIR     VIR    FVIR\n\t   PAIRS       0      39      39     416     416       0\n\t --------------------------------------------------------\n\n\t-----------------------------------------------------------\n\t ==================> DF-MP2 Energies <==================== \n\t-----------------------------------------------------------\n\t Reference Energy          =    -540.7188973976482202 [Eh]\n\t Singles Energy            =      -0.0000000000000000 [Eh]\n\t Same-Spin Energy          =      -0.6367746519750367 [Eh]\n\t Opposite-Spin Energy      =      -1.8382289791670861 [Eh]\n\t Correlation Energy        =      -2.4750036311421226 [Eh]\n\t Total Energy              =    -543.1939010287903784 [Eh]\n\t-----------------------------------------------------------\n\t ================> DF-SCS-MP2 Energies <================== \n\t-----------------------------------------------------------\n\t SCS Same-Spin Scale       =       0.2200000000000000 [-]\n\t SCS Opposite-Spin Scale   =       0.5200000000000000 [-]\n\t SCS Same-Spin Energy      =      -0.1400904234345081 [Eh]\n\t SCS Opposite-Spin Energy  =      -0.9558790691668848 [Eh]\n\t SCS Correlation Energy    =      -2.4181329923255150 [Eh]\n\t SCS Total Energy          =    -543.1370303899736882 [Eh]\n\t-----------------------------------------------------------\n\n\n\n    DSD-PBEP86-NL Energy Summary\n    ----------------------------\n    DFT Reference Energy                  =  -540.7188973976482202\n    Scaled MP2 Correlation                =    -1.0959694926013928\n    @Final double-hybrid DFT total energy =  -541.8148668902496183\n\n\n*** tstop() called on bignimbus at Sun May 16 16:04:15 2021\nModule time:\n\tuser time   =     103.01 seconds =       1.72 minutes\n\tsystem time =       2.89 seconds =       0.05 minutes\n\ttotal time  =          5 seconds =       0.08 minutes\nTotal time:\n\tuser time   =     571.75 seconds =       9.53 minutes\n\tsystem time =      36.59 seconds =       0.61 minutes\n\ttotal time  =         25 seconds =       0.42 minutes\n\n    Psi4 stopped on: Sunday, 16 May 2021 04:04PM\n    Psi4 wall time for execution: 0:00:24.34\n\n*** Psi4 exiting successfully. Buy a developer a beer!\n",
 "stderr": null,
 "success": true,
 "error": null,
 "tag": "dsd-pbep86-nl def2-tzvpd ggg_a"
}