{
 "id": null,
 "schema_name": "qcschema_output",
 "schema_version": 1,
 "molecule": {
  "validated": true,
  "symbols": [
   "N",
   "C",
   "N",
   "C",
   "C",
   "O",
   "N",
   "C",
   "N",
   "N",
   "C",
   "H",
   "H",
   "H",
   "H",
   "H"
  ],
  "geometry": [
   1.9795091944628955,
   2.1064834459358144,
   -3.2710258001379717,
   3.442157215567254,
   0.04479224306132246,
   -3.8587306251553546,
   3.037755824719278,
   -1.9205229274148177,
   -2.447105209438357,
   1.1329118902577873,
   -1.157073572729854,
   -0.8011537541645827,
   -0.012262141769655663,
   -2.415631172284768,
   1.2151840216989083,
   0.2787556815508495,
   -4.558580598553946,
   1.9767436502584184,
   -1.7942738780763892,
   -0.8301509530256518,
   2.4756313473792826,
   -2.3895376075956043,
   1.6208238316931525,
   1.8860367962364304,
   -4.060055502500323,
   2.879381431248068,
   3.327897829960767,
   -1.3464087863428829,
   2.818910195233415,
   -0.06605029136148675,
   0.4469413067165973,
   1.3279162822471884,
   -1.2830339161563362,
   1.9190379584482444,
   3.80723695884786,
   -4.140299817848581,
   -2.720239679550724,
   -1.6994249707362516,
   3.9722944387418746,
   4.817877834900553,
   0.1317196448323844,
   -5.370511525521616,
   -4.434221275340973,
   4.678400702683921,
   2.8233409544635233,
   -4.866968558070816,
   2.102703993684897,
   4.9095985969689675
  ],
  "name": "C5H5N5O",
  "molecular_charge": 0.0,
  "molecular_multiplicity": 1,
  "masses": [
   14.00307400443,
   12.0,
   14.00307400443,
   12.0,
   12.0,
   15.99491461957,
   14.00307400443,
   12.0,
   14.00307400443,
   14.00307400443,
   12.0,
   1.00782503223,
   1.00782503223,
   1.00782503223,
   1.00782503223,
   1.00782503223
  ],
  "real": [
   true,
   true,
   true,
   true,
   true,
   true,
   true,
   true,
   true,
   true,
   true,
   true,
   true,
   true,
   true,
   true
  ],
  "atom_labels": [
   "",
   "",
   "",
   "",
   "",
   "",
   "",
   "",
   "",
   "",
   "",
   "",
   "",
   "",
   "",
   ""
  ],
  "atomic_numbers": [
   7,
   6,
   7,
   6,
   6,
   8,
   7,
   6,
   7,
   7,
   6,
   1,
   1,
   1,
   1,
   1
  ],
  "mass_numbers": [
   14,
   12,
   14,
   12,
   12,
   16,
   14,
   12,
   14,
   14,
   12,
   1,
   1,
   1,
   1,
   1
  ],
  "fragments": [
   [
    0,
    1,
    2,
    3,
    4,
    5,
    6,
    7,
    8,
    9,
    10,
    11,
    12,
    13,
    14,
    15
   ]
  ],
  "fragment_charges": [
   0.0
  ],
  "fragment_multiplicities": [
   1
  ],
  "fix_com": false,
  "fix_orientation": false,
  "provenance": {
   "creator": "QCElemental",
   "version": "v0.19.0",
   "routine": "qcelemental.molparse.from_string"
  }
 },
 "driver": "energy",
 "model": {
  "method": "b97m-v",
  "basis": "pcseg-1"
 },
 "keywords": {},
 "protocols": {},
 "extras": {
  "qcvars": {
   "CURRENT DIPOLE X": -3.3181830557133614,
   "CURRENT DIPOLE Y": 6.064247483247773,
   "CURRENT DIPOLE Z": 1.0516437977382949,
   "CURRENT ENERGY": -542.3645567375166,
   "CURRENT REFERENCE ENERGY": -542.3645567375166,
   "DFT FUNCTIONAL TOTAL ENERGY": -542.3645567375166,
   "DFT TOTAL ENERGY": -542.3645567375166,
   "DFT VV10 ENERGY": 0.29746603691387935,
   "DFT XC ENERGY": -72.45841510298692,
   "NUCLEAR REPULSION ENERGY": 594.6969861901529,
   "ONE-ELECTRON ENERGY": -1915.764534790731,
   "PCM POLARIZATION ENERGY": 0.0,
   "PE ENERGY": 0.0,
   "SCF DIPOLE X": -3.3181830557133614,
   "SCF DIPOLE Y": 6.064247483247773,
   "SCF DIPOLE Z": 1.0516437977382949,
   "SCF ITERATION ENERGY": -542.3645567375166,
   "SCF ITERATIONS": 11.0,
   "SCF TOTAL ENERGY": -542.3645567375166,
   "TWO-ELECTRON ENERGY": 850.8639409291344,
   "XC GRID RADIAL POINTS": 75.0,
   "XC GRID SPHERICAL POINTS": 302.0,
   "XC GRID TOTAL POINTS": 334998.0,
   "CURRENT DIPOLE": [
    -1.3054736648651382,
    2.3858585417623024,
    0.4137485062501929
   ],
   "SCF DIPOLE": [
    -1.3054736648651382,
    2.3858585417623024,
    0.4137485062501929
   ]
  }
 },
 "provenance": {
  "creator": "Psi4",
  "version": "1.4a2.dev923",
  "routine": "psi4.schema_runner.run_qcschema",
  "nthreads": 16,
  "memory": 256.0,
  "hostname": "bignimbus",
  "cpu": "AMD EPYC Processor (with IBPB)",
  "qcengine_version": "v0.17.0",
  "username": "ubuntu",
  "wall_time": 35.15909171104431
 },
 "properties": {
  "calcinfo_nbasis": 179,
  "calcinfo_nmo": 179,
  "calcinfo_nalpha": 39,
  "calcinfo_nbeta": 39,
  "calcinfo_natom": 16,
  "nuclear_repulsion_energy": 594.6969861901529,
  "return_energy": -542.3645567375166,
  "scf_one_electron_energy": -1915.764534790731,
  "scf_two_electron_energy": 850.8639409291344,
  "scf_vv10_energy": 0.29746603691387935,
  "scf_xc_energy": -72.45841510298692,
  "scf_dipole_moment": [
   -1.3054736648651382,
   2.3858585417623024,
   0.4137485062501929
  ],
  "scf_total_energy": -542.3645567375166,
  "scf_iterations": 11
 },
 "wavefunction": null,
 "return_result": -542.3645567375166,
 "stdout": "\n    -----------------------------------------------------------------------\n          Psi4: An Open-Source Ab Initio Electronic Structure Package\n                               Psi4 1.4a2.dev923 \n\n                         Git: Rev {master} 5de566e \n\n\n    D. G. A. Smith, L. A. Burns, A. C. Simmonett, R. M. Parrish,\n    M. C. Schieber, R. Galvelis, P. Kraus, H. Kruse, R. Di Remigio,\n    A. Alenaizan, A. M. James, S. Lehtola, J. P. Misiewicz, M. Scheurer,\n    R. A. Shaw, J. B. Schriber, Y. Xie, Z. L. Glick, D. A. Sirianni,\n    J. S. O'Brien, J. M. Waldrop, A. Kumar, E. G. Hohenstein,\n    B. P. Pritchard, B. R. Brooks, H. F. Schaefer III, A. Yu. Sokolov,\n    K. Patkowski, A. E. DePrince III, U. Bozkaya, R. A. King,\n    F. A. Evangelista, J. M. Turney, T. D. Crawford, C. D. Sherrill,\n    J. Chem. Phys. 152(18) 184108 (2020). https://doi.org/10.1063/5.0006002\n\n                            Additional Code Authors\n    E. T. Seidl, C. L. Janssen, E. F. Valeev, M. L. Leininger,\n    J. F. Gonthier, R. M. Richard, H. R. McAlexander, M. Saitow, X. Wang,\n    P. Verma, and M. H. Lechner\n\n             Previous Authors, Complete List of Code Contributors,\n                       and Citations for Specific Modules\n    https://github.com/psi4/psi4/blob/master/codemeta.json\n    https://github.com/psi4/psi4/graphs/contributors\n    http://psicode.org/psi4manual/master/introduction.html#citing-psifour\n\n    -----------------------------------------------------------------------\n\n\n    Psi4 started on: Sunday, 25 April 2021 02:23AM\n\n    Process ID: 3943293\n    Host:       bignimbus\n    PSIDATADIR: /home/ubuntu/pk/Applications/miniconda3/envs/psi4-1.4a2.dev923/share/psi4\n    Memory:     238.4 GiB\n    Threads:    16\n    \n  ==> Input QCSchema <==\n\n--------------------------------------------------------------------------\n{'driver': 'energy',\n 'extras': {},\n 'id': None,\n 'keywords': {},\n 'model': {'basis': 'pcseg-1', 'method': 'b97m-v'},\n 'molecule': {'atom_labels': ['', '', '', '', '', '', '', '', '', '', '', '', '', '', '', ''],\n              'atomic_numbers': [7, 6, 7, 6, 6, 8, 7, 6, 7, 7, 6, 1, 1, 1, 1, 1],\n              'fix_com': False,\n              'fix_orientation': False,\n              'fragment_charges': [0.0],\n              'fragment_multiplicities': [1],\n              'fragments': [[0, 1, 2, 3, 4, 5, 6, 7, 8, 9, 10, 11, 12, 13, 14, 15]],\n              'geometry': [1.9795091944628904, 2.10648344593581, -3.2710258001380055, 3.4421572155672493,\n                           0.044792243061317905, -3.8587306251553883, 3.037755824719273, -1.9205229274148223,\n                           -2.4471052094383907, 1.1329118902577822, -1.1570735727298587, -0.8011537541646163,\n                           -0.012262141769660673, -2.4156311722847725, 1.2151840216988745, 0.2787556815508445,\n                           -4.5585805985539505, 1.9767436502583846, -1.7942738780763943, -0.8301509530256563,\n                           2.475631347379249, -2.389537607595609, 1.6208238316931478, 1.8860367962363966,\n                           -4.060055502500329, 2.8793814312480634, 3.327897829960733, -1.346408786342888,\n                           2.8189101952334106, -0.06605029136152041, 0.4469413067165923, 1.3279162822471837,\n                           -1.28303391615637, 1.9190379584482393, 3.8072369588478554, -4.140299817848614,\n                           -2.720239679550729, -1.6994249707362563, 3.972294438741841, 4.817877834900548,\n                           0.13171964483237986, -5.37051152552165, -4.434221275340978, 4.678400702683916,\n                           2.8233409544634895, -4.8669685580708215, 2.1027039936848926, 4.909598596968934],\n              'mass_numbers': [14, 12, 14, 12, 12, 16, 14, 12, 14, 14, 12, 1, 1, 1, 1, 1],\n              'masses': [14.00307400443, 12.0, 14.00307400443, 12.0, 12.0, 15.99491461957, 14.00307400443, 12.0,\n                         14.00307400443, 14.00307400443, 12.0, 1.00782503223, 1.00782503223, 1.00782503223,\n                         1.00782503223, 1.00782503223],\n              'molecular_charge': 0.0,\n              'molecular_multiplicity': 1,\n              'name': 'C5H5N5O',\n              'provenance': {'creator': 'QCElemental',\n                             'routine': 'qcelemental.molparse.from_string',\n                             'version': 'v0.19.0'},\n              'real': [True, True, True, True, True, True, True, True, True, True, True, True, True, True, True, True],\n              'symbols': ['N', 'C', 'N', 'C', 'C', 'O', 'N', 'C', 'N', 'N', 'C', 'H', 'H', 'H', 'H', 'H'],\n              'validated': True},\n 'protocols': {},\n 'provenance': {'creator': 'QCElemental', 'routine': 'qcelemental.models.results', 'version': 'v0.17.0'},\n 'schema_name': 'qcschema_input',\n 'schema_version': 1}\n--------------------------------------------------------------------------\n\nScratch directory: /home/ubuntu/pk/scratch/tmp1a2xw0k__psi_scratch/\n\n*** tstart() called on bignimbus\n*** at Sun Apr 25 02:23:33 2021\n\n   => Loading Basis Set <=\n\n    Name: PCSEG-1\n    Role: ORBITAL\n    Keyword: BASIS\n    atoms 1, 3, 7, 9-10 entry N          line   111 file /home/ubuntu/pk/Applications/miniconda3/envs/psi4-1.4a2.dev923/share/psi4/basis/pcseg-1.gbs \n    atoms 2, 4-5, 8, 11 entry C          line    90 file /home/ubuntu/pk/Applications/miniconda3/envs/psi4-1.4a2.dev923/share/psi4/basis/pcseg-1.gbs \n    atoms 6             entry O          line   132 file /home/ubuntu/pk/Applications/miniconda3/envs/psi4-1.4a2.dev923/share/psi4/basis/pcseg-1.gbs \n    atoms 12-16         entry H          line    13 file /home/ubuntu/pk/Applications/miniconda3/envs/psi4-1.4a2.dev923/share/psi4/basis/pcseg-1.gbs \n\n\n         ---------------------------------------------------------\n                                   SCF\n               by Justin Turney, Rob Parrish, Andy Simmonett\n                          and Daniel G. A. Smith\n                              RKS Reference\n                       16 Threads, 244140 MiB Core\n         ---------------------------------------------------------\n\n  ==> Geometry <==\n\n    Molecular point group: c1\n    Full point group: C1\n\n    Geometry (in Bohr), charge = 0, multiplicity = 1:\n\n       Center              X                  Y                   Z               Mass       \n    ------------   -----------------  -----------------  -----------------  -----------------\n         N            1.979509194463     2.106483445936    -3.271025800138    14.003074004430\n         C            3.442157215567     0.044792243061    -3.858730625155    12.000000000000\n         N            3.037755824719    -1.920522927415    -2.447105209438    14.003074004430\n         C            1.132911890258    -1.157073572730    -0.801153754165    12.000000000000\n         C           -0.012262141770    -2.415631172285     1.215184021699    12.000000000000\n         O            0.278755681551    -4.558580598554     1.976743650258    15.994914619570\n         N           -1.794273878076    -0.830150953026     2.475631347379    14.003074004430\n         C           -2.389537607596     1.620823831693     1.886036796236    12.000000000000\n         N           -4.060055502500     2.879381431248     3.327897829961    14.003074004430\n         N           -1.346408786343     2.818910195233    -0.066050291361    14.003074004430\n         C            0.446941306717     1.327916282247    -1.283033916156    12.000000000000\n         H            1.919037958448     3.807236958848    -4.140299817849     1.007825032230\n         H           -2.720239679551    -1.699424970736     3.972294438742     1.007825032230\n         H            4.817877834901     0.131719644832    -5.370511525522     1.007825032230\n         H           -4.434221275341     4.678400702684     2.823340954464     1.007825032230\n         H           -4.866968558071     2.102703993685     4.909598596969     1.007825032230\n\n  Running in c1 symmetry.\n\n  Rotational constants: A =      0.06486  B =      0.03693  C =      0.02354 [cm^-1]\n  Rotational constants: A =   1944.44089  B =   1107.15421  C =    705.76789 [MHz]\n  Nuclear repulsion =  594.696986190152870\n\n  Charge       = 0\n  Multiplicity = 1\n  Electrons    = 78\n  Nalpha       = 39\n  Nbeta        = 39\n\n  ==> Algorithm <==\n\n  SCF Algorithm Type is DF.\n  DIIS enabled.\n  MOM disabled.\n  Fractional occupation disabled.\n  Guess Type is SAD.\n  Energy threshold   = 1.00e-06\n  Density threshold  = 1.00e-06\n  Integral threshold = 0.00e+00\n\n  ==> Primary Basis <==\n\n  Basis Set: PCSEG-1\n    Blend: PCSEG-1\n    Number of shells: 81\n    Number of basis function: 179\n    Number of Cartesian functions: 190\n    Spherical Harmonics?: true\n    Max angular momentum: 2\n\n  ==> DFT Potential <==\n\n   => Composite Functional: B97M-V <= \n\n    B97M-V GGA Exchange-Correlation Functional\n\n    N. Mardirossian and M. Head-Gordon, J. Chem. Phys. 142, 074111 (2015)\n\n    Deriv               =              1\n    GGA                 =           TRUE\n    Meta                =           TRUE\n\n    Exchange Hybrid     =          FALSE\n    MP2 Hybrid          =          FALSE\n\n   => Exchange-Correlation Functionals <=\n\n    1.0000   B97M-V exchange-correlation functional\n\n   => LibXC Density Thresholds  <==\n\n    XC_MGGA_XC_B97M_V:  1.00E-23 \n\n   => VV10 Non-Local Parameters <=\n\n    VV10 B              =     6.0000E+00\n    VV10 C              =     1.0000E-02\n\n   => Molecular Quadrature <=\n\n    Radial Scheme          =       TREUTLER\n    Pruning Scheme         =           NONE\n    Nuclear Scheme         =       TREUTLER\n\n    BS radius alpha        =              1\n    Pruning alpha          =              1\n    Radial Points          =             75\n    Spherical Points       =            302\n    Total Points           =         334998\n    Total Blocks           =           2502\n    Max Points             =            256\n    Max Functions          =            167\n    Weights Tolerance      =       1.00E-15\n\n   => Loading Basis Set <=\n\n    Name: (PCSEG-1 AUX)\n    Role: JKFIT\n    Keyword: DF_BASIS_SCF\n    atoms 1, 3, 7, 9-10 entry N          line   258 file /home/ubuntu/pk/Applications/miniconda3/envs/psi4-1.4a2.dev923/share/psi4/basis/def2-universal-jkfit.gbs \n    atoms 2, 4-5, 8, 11 entry C          line   198 file /home/ubuntu/pk/Applications/miniconda3/envs/psi4-1.4a2.dev923/share/psi4/basis/def2-universal-jkfit.gbs \n    atoms 6             entry O          line   318 file /home/ubuntu/pk/Applications/miniconda3/envs/psi4-1.4a2.dev923/share/psi4/basis/def2-universal-jkfit.gbs \n    atoms 12-16         entry H          line    18 file /home/ubuntu/pk/Applications/miniconda3/envs/psi4-1.4a2.dev923/share/psi4/basis/def2-universal-jkfit.gbs \n\n  ==> Integral Setup <==\n\n  DFHelper Memory: AOs need 0.216 GiB; user supplied 175.993 GiB. Using in-core AOs.\n\n  ==> MemDFJK: Density-Fitted J/K Matrices <==\n\n    J tasked:                   Yes\n    K tasked:                    No\n    wK tasked:                   No\n    OpenMP threads:              16\n    Memory [MiB]:            180217\n    Algorithm:                 Core\n    Schwarz Cutoff:           1E-12\n    Mask sparsity (%):      10.0746\n    Fitting Condition:        1E-10\n\n   => Auxiliary Basis Set <=\n\n  Basis Set: (PCSEG-1 AUX)\n    Blend: DEF2-UNIVERSAL-JKFIT\n    Number of shells: 305\n    Number of basis function: 927\n    Number of Cartesian functions: 1103\n    Spherical Harmonics?: true\n    Max angular momentum: 4\n\n  Cached 100.0% of DFT collocation blocks in 2.820 [GiB].\n\n  Minimum eigenvalue in the overlap matrix is 9.5370649157E-04.\n  Reciprocal condition number of the overlap matrix is 1.5714793540E-04.\n    Using symmetric orthogonalization.\n\n  ==> Pre-Iterations <==\n\n  SCF Guess: Superposition of Atomic Densities via on-the-fly atomic UHF (no occupation information).\n\n   -------------------------\n    Irrep   Nso     Nmo    \n   -------------------------\n     A        179     179 \n   -------------------------\n    Total     179     179\n   -------------------------\n\n  ==> Iterations <==\n\n                           Total Energy        Delta E     RMS |[F,P]|\n\n   @DF-RKS iter SAD:  -542.23674569733555   -5.42237e+02   0.00000e+00 \n   @DF-RKS iter   1:  -541.76250848638654    4.74237e-01   6.28490e-03 DIIS\n   @DF-RKS iter   2:  -541.15511656149715    6.07392e-01   8.82070e-03 DIIS\n   @DF-RKS iter   3:  -542.23788350412678   -1.08277e+00   2.83945e-03 DIIS\n   @DF-RKS iter   4:  -542.35951324652262   -1.21630e-01   5.77251e-04 DIIS\n   @DF-RKS iter   5:  -542.36178988344227   -2.27664e-03   4.13774e-04 DIIS\n   @DF-RKS iter   6:  -542.36438755365543   -2.59767e-03   1.02033e-04 DIIS\n   @DF-RKS iter   7:  -542.36454060574943   -1.53052e-04   3.34322e-05 DIIS\n   @DF-RKS iter   8:  -542.36455546854688   -1.48628e-05   9.17875e-06 DIIS\n   @DF-RKS iter   9:  -542.36455632772572   -8.59179e-07   5.27393e-06 DIIS\n   @DF-RKS iter  10:  -542.36455670191708   -3.74191e-07   1.58815e-06 DIIS\n   @DF-RKS iter  11:  -542.36455673751664   -3.55996e-08   3.10080e-07 DIIS\n  Energy and wave function converged.\n\n\n  ==> Post-Iterations <==\n\n    Orbital Energies [Eh]\n    ---------------------\n\n    Doubly Occupied:                                                      \n\n       1A    -19.095411     2A    -14.389317     3A    -14.386102  \n       4A    -14.378686     5A    -14.324618     6A    -14.312407  \n       7A    -10.316864     8A    -10.279172     9A    -10.254742  \n      10A    -10.238398    11A    -10.188583    12A     -1.045063  \n      13A     -1.017398    14A     -1.001639    15A     -0.914329  \n      16A     -0.894228    17A     -0.870345    18A     -0.755083  \n      19A     -0.657775    20A     -0.644331    21A     -0.604347  \n      22A     -0.580455    23A     -0.531583    24A     -0.526961  \n      25A     -0.503457    26A     -0.471126    27A     -0.451711  \n      28A     -0.437512    29A     -0.408644    30A     -0.406382  \n      31A     -0.390773    32A     -0.368452    33A     -0.298515  \n      34A     -0.291749    35A     -0.270810    36A     -0.265382  \n      37A     -0.248373    38A     -0.233373    39A     -0.195657  \n\n    Virtual:                                                              \n\n      40A     -0.030127    41A     -0.021373    42A     -0.007060  \n      43A      0.017556    44A      0.028934    45A      0.043343  \n      46A      0.069638    47A      0.077521    48A      0.141443  \n      49A      0.154855    50A      0.170250    51A      0.176972  \n      52A      0.200712    53A      0.233121    54A      0.251581  \n      55A      0.266641    56A      0.304123    57A      0.317581  \n      58A      0.339972    59A      0.366835    60A      0.370060  \n      61A      0.377135    62A      0.402863    63A      0.428706  \n      64A      0.433831    65A      0.445315    66A      0.457771  \n      67A      0.476578    68A      0.483758    69A      0.506846  \n      70A      0.518288    71A      0.537383    72A      0.542243  \n      73A      0.587805    74A      0.594628    75A      0.623963  \n      76A      0.635926    77A      0.664509    78A      0.677079  \n      79A      0.679121    80A      0.680862    81A      0.706863  \n      82A      0.726617    83A      0.739331    84A      0.746276  \n      85A      0.761158    86A      0.783137    87A      0.813432  \n      88A      0.828056    89A      0.870738    90A      0.876045  \n      91A      0.905154    92A      0.947839    93A      0.963120  \n      94A      0.990168    95A      1.011168    96A      1.019438  \n      97A      1.099390    98A      1.133408    99A      1.174125  \n     100A      1.195367   101A      1.226257   102A      1.250509  \n     103A      1.258229   104A      1.299089   105A      1.317442  \n     106A      1.351769   107A      1.369967   108A      1.372915  \n     109A      1.400358   110A      1.429556   111A      1.449972  \n     112A      1.455732   113A      1.490304   114A      1.493962  \n     115A      1.513645   116A      1.587587   117A      1.697570  \n     118A      1.708376   119A      1.785457   120A      1.802877  \n     121A      1.845765   122A      1.856601   123A      1.871207  \n     124A      1.901709   125A      1.909745   126A      1.922213  \n     127A      1.942811   128A      1.974349   129A      1.983413  \n     130A      2.011632   131A      2.014435   132A      2.051154  \n     133A      2.064722   134A      2.100538   135A      2.111040  \n     136A      2.141650   137A      2.175576   138A      2.211803  \n     139A      2.234466   140A      2.248725   141A      2.288278  \n     142A      2.345323   143A      2.353368   144A      2.375627  \n     145A      2.391395   146A      2.418348   147A      2.447827  \n     148A      2.462412   149A      2.482445   150A      2.499127  \n     151A      2.507090   152A      2.518927   153A      2.547566  \n     154A      2.563946   155A      2.650445   156A      2.669411  \n     157A      2.695513   158A      2.702400   159A      2.708983  \n     160A      2.765036   161A      2.775570   162A      2.807084  \n     163A      2.834764   164A      2.860777   165A      2.897823  \n     166A      2.996664   167A      3.001014   168A      3.023955  \n     169A      3.060259   170A      3.169864   171A      3.174987  \n     172A      3.272339   173A      3.323133   174A      3.371356  \n     175A      3.455813   176A      3.476660   177A      3.702855  \n     178A      3.741470   179A      3.802289  \n\n    Final Occupation by Irrep:\n              A \n    DOCC [    39 ]\n\n  @DF-RKS Final Energy:  -542.36455673751664\n\n   => Energetics <=\n\n    Nuclear Repulsion Energy =            594.6969861901528702\n    One-Electron Energy =               -1915.7645347907309770\n    Two-Electron Energy =                 850.8639409291344009\n    DFT Exchange-Correlation Energy =     -72.4584151029869190\n    Empirical Dispersion Energy =           0.0000000000000000\n    VV10 Nonlocal Energy =                  0.2974660369138794\n    Total Energy =                       -542.3645567375166365\n\nComputation Completed\n\n\nProperties will be evaluated at   0.000000,   0.000000,   0.000000 [a0]\n\nProperties computed using the SCF density matrix\n\n  Nuclear Dipole Moment: [e a0]\n     X:    -2.6175      Y:     4.4557      Z:     1.0936\n\n  Electronic Dipole Moment: [e a0]\n     X:     1.3120      Y:    -2.0698      Z:    -0.6799\n\n  Dipole Moment: [e a0]\n     X:    -1.3055      Y:     2.3859      Z:     0.4137     Total:     2.7510\n\n  Dipole Moment: [D]\n     X:    -3.3182      Y:     6.0642      Z:     1.0516     Total:     6.9922\n\n\n*** tstop() called on bignimbus at Sun Apr 25 02:24:04 2021\nModule time:\n\tuser time   =     444.77 seconds =       7.41 minutes\n\tsystem time =       6.38 seconds =       0.11 minutes\n\ttotal time  =         31 seconds =       0.52 minutes\nTotal time:\n\tuser time   =     444.77 seconds =       7.41 minutes\n\tsystem time =       6.38 seconds =       0.11 minutes\n\ttotal time  =         31 seconds =       0.52 minutes\n\n    Psi4 stopped on: Sunday, 25 April 2021 02:24AM\n    Psi4 wall time for execution: 0:00:30.27\n\n*** Psi4 exiting successfully. Buy a developer a beer!\n",
 "stderr": null,
 "success": true,
 "error": null,
 "tag": "b97m-v pcseg-1 ggg_a"
}