{
 "id": null,
 "schema_name": "qcschema_output",
 "schema_version": 1,
 "molecule": {
  "validated": true,
  "symbols": [
   "N",
   "C",
   "N",
   "C",
   "C",
   "O",
   "N",
   "C",
   "N",
   "N",
   "C",
   "H",
   "H",
   "H",
   "H",
   "H"
  ],
  "geometry": [
   1.9795091944628953,
   2.1064834459358144,
   -3.2710258001379717,
   3.442157215567254,
   0.044792243061322456,
   -3.8587306251553546,
   3.037755824719278,
   -1.9205229274148177,
   -2.447105209438357,
   1.132911890257787,
   -1.157073572729854,
   -0.8011537541645827,
   -0.012262141769655687,
   -2.415631172284768,
   1.2151840216989083,
   0.2787556815508495,
   -4.558580598553946,
   1.9767436502584184,
   -1.7942738780763894,
   -0.8301509530256518,
   2.4756313473792826,
   -2.3895376075956043,
   1.6208238316931525,
   1.8860367962364304,
   -4.060055502500323,
   2.879381431248068,
   3.327897829960767,
   -1.346408786342883,
   2.818910195233415,
   -0.06605029136148673,
   0.4469413067165973,
   1.3279162822471884,
   -1.2830339161563362,
   1.9190379584482442,
   3.80723695884786,
   -4.140299817848581,
   -2.720239679550724,
   -1.6994249707362516,
   3.9722944387418746,
   4.817877834900553,
   0.1317196448323844,
   -5.370511525521616,
   -4.434221275340973,
   4.678400702683921,
   2.8233409544635233,
   -4.866968558070816,
   2.102703993684897,
   4.9095985969689675
  ],
  "name": "C5H5N5O",
  "molecular_charge": 0.0,
  "molecular_multiplicity": 1,
  "masses": [
   14.00307400443,
   12.0,
   14.00307400443,
   12.0,
   12.0,
   15.99491461957,
   14.00307400443,
   12.0,
   14.00307400443,
   14.00307400443,
   12.0,
   1.00782503223,
   1.00782503223,
   1.00782503223,
   1.00782503223,
   1.00782503223
  ],
  "real": [
   true,
   true,
   true,
   true,
   true,
   true,
   true,
   true,
   true,
   true,
   true,
   true,
   true,
   true,
   true,
   true
  ],
  "atom_labels": [
   "",
   "",
   "",
   "",
   "",
   "",
   "",
   "",
   "",
   "",
   "",
   "",
   "",
   "",
   "",
   ""
  ],
  "atomic_numbers": [
   7,
   6,
   7,
   6,
   6,
   8,
   7,
   6,
   7,
   7,
   6,
   1,
   1,
   1,
   1,
   1
  ],
  "mass_numbers": [
   14,
   12,
   14,
   12,
   12,
   16,
   14,
   12,
   14,
   14,
   12,
   1,
   1,
   1,
   1,
   1
  ],
  "fragments": [
   [
    0,
    1,
    2,
    3,
    4,
    5,
    6,
    7,
    8,
    9,
    10,
    11,
    12,
    13,
    14,
    15
   ]
  ],
  "fragment_charges": [
   0.0
  ],
  "fragment_multiplicities": [
   1
  ],
  "fix_com": false,
  "fix_orientation": false,
  "provenance": {
   "creator": "QCElemental",
   "version": "v0.19.0",
   "routine": "qcelemental.molparse.from_string"
  }
 },
 "driver": "energy",
 "model": {
  "method": "dsd-pbep86-nl",
  "basis": "pcseg-2"
 },
 "keywords": {
  "guess": "SAP",
  "freeze_core": "true",
  "dft_vv10_postscf": "true"
 },
 "protocols": {},
 "extras": {
  "qcvars": {
   "CURRENT DIPOLE X": -3.3281030293295983,
   "CURRENT DIPOLE Y": 6.420627179948077,
   "CURRENT DIPOLE Z": 0.8844436894375464,
   "CURRENT ENERGY": -541.6787724941469,
   "CURRENT REFERENCE ENERGY": -540.6974066447457,
   "DFT FUNCTIONAL TOTAL ENERGY": -540.6974066447458,
   "DFT TOTAL ENERGY": -541.6787724941469,
   "DFT VV10 ENERGY": 0.10476851515901298,
   "DFT XC ENERGY": -22.65204208778875,
   "DOUBLE-HYBRID CORRECTION ENERGY": -0.9813658494011595,
   "DSD-PBEP86-NL DOUBLE-HYBRID CORRECTION ENERGY": -0.9813658494011595,
   "DSD-PBEP86-NL TOTAL ENERGY": -541.6787724941469,
   "NUCLEAR REPULSION ENERGY": 594.6969861901529,
   "ONE-ELECTRON ENERGY": -1915.6795584414294,
   "PCM POLARIZATION ENERGY": 0.0,
   "PE ENERGY": 0.0,
   "SCF DIPOLE X": -3.3281030293295983,
   "SCF DIPOLE Y": 6.420627179948077,
   "SCF DIPOLE Z": 0.8844436894375464,
   "SCF ITERATION ENERGY": -540.8022643716125,
   "SCF ITERATIONS": 11.0,
   "SCF TOTAL ENERGY": -540.6974066447457,
   "TWO-ELECTRON ENERGY": 802.8324391791605,
   "XC GRID RADIAL POINTS": 75.0,
   "XC GRID SPHERICAL POINTS": 302.0,
   "XC GRID TOTAL POINTS": 336777.0,
   "CURRENT DIPOLE": [
    -1.309376482791309,
    2.5260691030614444,
    0.34796692202644364
   ],
   "SCF DIPOLE": [
    -1.309376482791309,
    2.5260691030614444,
    0.34796692202644364
   ]
  }
 },
 "provenance": {
  "creator": "Psi4",
  "version": "1.4a2.dev923",
  "routine": "psi4.schema_runner.run_qcschema",
  "cpu": "Intel(R) Xeon(R) CPU E5-2680 v4 @ 2.40GHz",
  "wall_time": 21.87996196746826,
  "nthreads": 24,
  "memory": 120.0,
  "qcengine_version": "v0.16.0",
  "hostname": "z068",
  "username": "kraus"
 },
 "properties": {
  "calcinfo_nbasis": 400,
  "calcinfo_nmo": 400,
  "calcinfo_nalpha": 39,
  "calcinfo_nbeta": 39,
  "calcinfo_natom": 16,
  "nuclear_repulsion_energy": 594.6969861901529,
  "return_energy": -541.6787724941469,
  "scf_one_electron_energy": -1915.6795584414294,
  "scf_two_electron_energy": 802.8324391791605,
  "scf_vv10_energy": 0.10476851515901298,
  "scf_xc_energy": -22.65204208778875,
  "scf_dipole_moment": [
   -1.309376482791309,
   2.5260691030614444,
   0.34796692202644364
  ],
  "scf_total_energy": -540.6974066447457,
  "scf_iterations": 11
 },
 "wavefunction": null,
 "return_result": -541.6787724941469,
 "stdout": "\n    -----------------------------------------------------------------------\n          Psi4: An Open-Source Ab Initio Electronic Structure Package\n                               Psi4 1.4a2.dev923 \n\n                         Git: Rev {master} 5de566e \n\n\n    D. G. A. Smith, L. A. Burns, A. C. Simmonett, R. M. Parrish,\n    M. C. Schieber, R. Galvelis, P. Kraus, H. Kruse, R. Di Remigio,\n    A. Alenaizan, A. M. James, S. Lehtola, J. P. Misiewicz, M. Scheurer,\n    R. A. Shaw, J. B. Schriber, Y. Xie, Z. L. Glick, D. A. Sirianni,\n    J. S. O'Brien, J. M. Waldrop, A. Kumar, E. G. Hohenstein,\n    B. P. Pritchard, B. R. Brooks, H. F. Schaefer III, A. Yu. Sokolov,\n    K. Patkowski, A. E. DePrince III, U. Bozkaya, R. A. King,\n    F. A. Evangelista, J. M. Turney, T. D. Crawford, C. D. Sherrill,\n    J. Chem. Phys. 152(18) 184108 (2020). https://doi.org/10.1063/5.0006002\n\n                            Additional Code Authors\n    E. T. Seidl, C. L. Janssen, E. F. Valeev, M. L. Leininger,\n    J. F. Gonthier, R. M. Richard, H. R. McAlexander, M. Saitow, X. Wang,\n    P. Verma, and M. H. Lechner\n\n             Previous Authors, Complete List of Code Contributors,\n                       and Citations for Specific Modules\n    https://github.com/psi4/psi4/blob/master/codemeta.json\n    https://github.com/psi4/psi4/graphs/contributors\n    http://psicode.org/psi4manual/master/introduction.html#citing-psifour\n\n    -----------------------------------------------------------------------\n\n\n    Psi4 started on: Monday, 17 May 2021 03:47PM\n\n    Process ID: 7279\n    Host:       z068\n    PSIDATADIR: /group/f97/kraus/miniconda3/envs/psi4-1.4a2.dev923/share/psi4\n    Memory:     111.8 GiB\n    Threads:    24\n    \n  ==> Input QCSchema <==\n\n--------------------------------------------------------------------------\n{'driver': 'energy',\n 'extras': {},\n 'id': None,\n 'keywords': {'dft_vv10_postscf': 'true', 'freeze_core': 'true', 'guess': 'SAP'},\n 'model': {'basis': 'pcseg-2', 'method': 'dsd-pbep86-nl'},\n 'molecule': {'atom_labels': ['', '', '', '', '', '', '', '', '', '', '', '', '', '', '', ''],\n              'atomic_numbers': [7, 6, 7, 6, 6, 8, 7, 6, 7, 7, 6, 1, 1, 1, 1, 1],\n              'fix_com': False,\n              'fix_orientation': False,\n              'fragment_charges': [0.0],\n              'fragment_multiplicities': [1],\n              'fragments': [[0, 1, 2, 3, 4, 5, 6, 7, 8, 9, 10, 11, 12, 13, 14, 15]],\n              'geometry': [1.9795091944628904, 2.10648344593581, -3.2710258001380055, 3.4421572155672493,\n                           0.044792243061317905, -3.8587306251553883, 3.037755824719273, -1.9205229274148223,\n                           -2.4471052094383907, 1.1329118902577822, -1.1570735727298587, -0.8011537541646163,\n                           -0.012262141769660673, -2.4156311722847725, 1.2151840216988745, 0.2787556815508445,\n                           -4.5585805985539505, 1.9767436502583846, -1.7942738780763943, -0.8301509530256563,\n                           2.475631347379249, -2.389537607595609, 1.6208238316931478, 1.8860367962363966,\n                           -4.060055502500329, 2.8793814312480634, 3.327897829960733, -1.346408786342888,\n                           2.8189101952334106, -0.06605029136152041, 0.4469413067165923, 1.3279162822471837,\n                           -1.28303391615637, 1.9190379584482393, 3.8072369588478554, -4.140299817848614,\n                           -2.720239679550729, -1.6994249707362563, 3.972294438741841, 4.817877834900548,\n                           0.13171964483237986, -5.37051152552165, -4.434221275340978, 4.678400702683916,\n                           2.8233409544634895, -4.8669685580708215, 2.1027039936848926, 4.909598596968934],\n              'mass_numbers': [14, 12, 14, 12, 12, 16, 14, 12, 14, 14, 12, 1, 1, 1, 1, 1],\n              'masses': [14.00307400443, 12.0, 14.00307400443, 12.0, 12.0, 15.99491461957, 14.00307400443, 12.0,\n                         14.00307400443, 14.00307400443, 12.0, 1.00782503223, 1.00782503223, 1.00782503223,\n                         1.00782503223, 1.00782503223],\n              'molecular_charge': 0.0,\n              'molecular_multiplicity': 1,\n              'name': 'C5H5N5O',\n              'provenance': {'creator': 'QCElemental',\n                             'routine': 'qcelemental.molparse.from_string',\n                             'version': 'v0.19.0'},\n              'real': [True, True, True, True, True, True, True, True, True, True, True, True, True, True, True, True],\n              'symbols': ['N', 'C', 'N', 'C', 'C', 'O', 'N', 'C', 'N', 'N', 'C', 'H', 'H', 'H', 'H', 'H'],\n              'validated': True},\n 'protocols': {},\n 'provenance': {'creator': 'QCElemental', 'routine': 'qcelemental.models.results', 'version': 'v0.16.0'},\n 'schema_name': 'qcschema_input',\n 'schema_version': 1}\n--------------------------------------------------------------------------\n\nScratch directory: /scratch/f97/kraus/scratch/tmpns36fzd4_psi_scratch/\n\n*** tstart() called on z068\n*** at Mon May 17 15:47:19 2021\n\n   => Loading Basis Set <=\n\n    Name: PCSEG-2\n    Role: ORBITAL\n    Keyword: BASIS\n    atoms 1, 3, 7, 9-10 entry N          line   161 file /group/f97/kraus/miniconda3/envs/psi4-1.4a2.dev923/share/psi4/basis/pcseg-2.gbs \n    atoms 2, 4-5, 8, 11 entry C          line   129 file /group/f97/kraus/miniconda3/envs/psi4-1.4a2.dev923/share/psi4/basis/pcseg-2.gbs \n    atoms 6             entry O          line   193 file /group/f97/kraus/miniconda3/envs/psi4-1.4a2.dev923/share/psi4/basis/pcseg-2.gbs \n    atoms 12-16         entry H          line    13 file /group/f97/kraus/miniconda3/envs/psi4-1.4a2.dev923/share/psi4/basis/pcseg-2.gbs \n\n   => DSD-PBEP86-NL: Empirical Dispersion <=\n\n    Grimme's -NL (DFT plus VV10 correlation) \n    Hujo, W.; Grimme, S; (2011), J. Chem. Theory Comput.; 7:3866\n    Parametrisation from:    M. K. Kesharwani, A. Karton, J.M. L. Martin, J. Chem. Theory Comput. 12, 444-454, 2016\n\n         b =      12.800000\n         c =       0.009300\n\n\n         ---------------------------------------------------------\n                                   SCF\n               by Justin Turney, Rob Parrish, Andy Simmonett\n                          and Daniel G. A. Smith\n                              RKS Reference\n                       24 Threads, 114440 MiB Core\n         ---------------------------------------------------------\n\n  ==> Geometry <==\n\n    Molecular point group: c1\n    Full point group: C1\n\n    Geometry (in Bohr), charge = 0, multiplicity = 1:\n\n       Center              X                  Y                   Z               Mass       \n    ------------   -----------------  -----------------  -----------------  -----------------\n         N            1.979509194463     2.106483445936    -3.271025800138    14.003074004430\n         C            3.442157215567     0.044792243061    -3.858730625155    12.000000000000\n         N            3.037755824719    -1.920522927415    -2.447105209438    14.003074004430\n         C            1.132911890258    -1.157073572730    -0.801153754165    12.000000000000\n         C           -0.012262141770    -2.415631172285     1.215184021699    12.000000000000\n         O            0.278755681551    -4.558580598554     1.976743650258    15.994914619570\n         N           -1.794273878076    -0.830150953026     2.475631347379    14.003074004430\n         C           -2.389537607596     1.620823831693     1.886036796236    12.000000000000\n         N           -4.060055502500     2.879381431248     3.327897829961    14.003074004430\n         N           -1.346408786343     2.818910195233    -0.066050291361    14.003074004430\n         C            0.446941306717     1.327916282247    -1.283033916156    12.000000000000\n         H            1.919037958448     3.807236958848    -4.140299817849     1.007825032230\n         H           -2.720239679551    -1.699424970736     3.972294438742     1.007825032230\n         H            4.817877834901     0.131719644832    -5.370511525522     1.007825032230\n         H           -4.434221275341     4.678400702684     2.823340954464     1.007825032230\n         H           -4.866968558071     2.102703993685     4.909598596969     1.007825032230\n\n  Running in c1 symmetry.\n\n  Rotational constants: A =      0.06486  B =      0.03693  C =      0.02354 [cm^-1]\n  Rotational constants: A =   1944.44089  B =   1107.15421  C =    705.76789 [MHz]\n  Nuclear repulsion =  594.696986190152870\n\n  Charge       = 0\n  Multiplicity = 1\n  Electrons    = 78\n  Nalpha       = 39\n  Nbeta        = 39\n\n  ==> Algorithm <==\n\n  SCF Algorithm Type is DF.\n  DIIS enabled.\n  MOM disabled.\n  Fractional occupation disabled.\n  Guess Type is SAP.\n  Energy threshold   = 1.00e-06\n  Density threshold  = 1.00e-06\n  Integral threshold = 0.00e+00\n\n  ==> Primary Basis <==\n\n  Basis Set: PCSEG-2\n    Blend: PCSEG-2\n    Number of shells: 140\n    Number of basis function: 400\n    Number of Cartesian functions: 460\n    Spherical Harmonics?: true\n    Max angular momentum: 3\n\n  ==> DFT Potential <==\n\n   => Composite Functional: DSD-PBEP86-NL <= \n\n    DSD-PBEP86-NL (D3BJ parameters) VV10 SCS Double Hybrid XC Functional\n\n    S. Kozuch, J.M.L. Martin, J. Comp. Chem., 34, 2327-2344, 2013\n\n\n    Deriv               =              1\n    GGA                 =           TRUE\n    Meta                =          FALSE\n\n    Exchange Hybrid     =           TRUE\n    MP2 Hybrid          =           TRUE\n\n   => Exchange Functionals <=\n\n    0.3100     XC_GGA_X_PBE\n\n   => Exact (HF) Exchange <=\n\n    0.6900               HF \n\n   => Correlation Functionals <=\n\n    0.4400     XC_GGA_C_P86\n\n   => MP2 Correlation <=\n\n    MP2 SCS Hybrid      =           TRUE\n    MP2 OS Alpha        =       0.520000\n    MP2 SS Alpha        =       0.220000\n\n   => LibXC Density Thresholds  <==\n\n    XC_GGA_C_P86:  1.00E-25 \n    XC_GGA_X_PBE:  1.00E-32 \n\n   => VV10 Non-Local Parameters <=\n\n    VV10 B              =     1.2800E+01\n    VV10 C              =     9.3000E-03\n\n   => Molecular Quadrature <=\n\n    Radial Scheme          =       TREUTLER\n    Pruning Scheme         =           NONE\n    Nuclear Scheme         =       TREUTLER\n\n    BS radius alpha        =              1\n    Pruning alpha          =              1\n    Radial Points          =             75\n    Spherical Points       =            302\n    Total Points           =         336779\n    Total Blocks           =           2517\n    Max Points             =            256\n    Max Functions          =            357\n    Weights Tolerance      =       1.00E-15\n\n   => Loading Basis Set <=\n\n    Name: (PCSEG-2 AUX)\n    Role: JKFIT\n    Keyword: DF_BASIS_SCF\n    atoms 1, 3, 7, 9-10 entry N          line   258 file /group/f97/kraus/miniconda3/envs/psi4-1.4a2.dev923/share/psi4/basis/def2-universal-jkfit.gbs \n    atoms 2, 4-5, 8, 11 entry C          line   198 file /group/f97/kraus/miniconda3/envs/psi4-1.4a2.dev923/share/psi4/basis/def2-universal-jkfit.gbs \n    atoms 6             entry O          line   318 file /group/f97/kraus/miniconda3/envs/psi4-1.4a2.dev923/share/psi4/basis/def2-universal-jkfit.gbs \n    atoms 12-16         entry H          line    18 file /group/f97/kraus/miniconda3/envs/psi4-1.4a2.dev923/share/psi4/basis/def2-universal-jkfit.gbs \n\n  ==> Integral Setup <==\n\n  DFHelper Memory: AOs need 1.027 GiB; user supplied 81.489 GiB. Using in-core AOs.\n\n  ==> MemDFJK: Density-Fitted J/K Matrices <==\n\n    J tasked:                   Yes\n    K tasked:                   Yes\n    wK tasked:                   No\n    OpenMP threads:              24\n    Memory [MiB]:             83444\n    Algorithm:                 Core\n    Schwarz Cutoff:           1E-12\n    Mask sparsity (%):      13.1212\n    Fitting Condition:        1E-10\n\n   => Auxiliary Basis Set <=\n\n  Basis Set: (PCSEG-2 AUX)\n    Blend: DEF2-UNIVERSAL-JKFIT\n    Number of shells: 305\n    Number of basis function: 927\n    Number of Cartesian functions: 1103\n    Spherical Harmonics?: true\n    Max angular momentum: 4\n\n  Cached 100.0% of DFT collocation blocks in 2.330 [GiB].\n\n  Minimum eigenvalue in the overlap matrix is 7.1434843220E-05.\n  Reciprocal condition number of the overlap matrix is 6.9325794145E-06.\n    Using symmetric orthogonalization.\n\n  ==> Pre-Iterations <==\n\n  SCF Guess: Superposition of Atomic Potentials (doi:10.1021/acs.jctc.8b01089).\n\n  ==> SAP guess <==\n\n   => Molecular Quadrature <=\n\n    Radial Scheme          =       TREUTLER\n    Pruning Scheme         =           NONE\n    Nuclear Scheme         =       TREUTLER\n\n    BS radius alpha        =              1\n    Pruning alpha          =              1\n    Radial Points          =             75\n    Spherical Points       =            302\n    Total Points           =         336777\n    Total Blocks           =           2516\n    Max Points             =            256\n    Max Functions          =            357\n    Weights Tolerance      =       1.00E-15\n\n   -------------------------------------------------------\n    Irrep   Nso     Nmo     Nalpha   Nbeta   Ndocc  Nsocc\n   -------------------------------------------------------\n     A        400     400      39      39      39       0\n   -------------------------------------------------------\n    Total     400     400      39      39      39       0\n   -------------------------------------------------------\n\n  VV10: post-SCF option active \n \n  ==> Iterations <==\n\n                           Total Energy        Delta E     RMS |[F,P]|\n\n   @DF-RKS iter   1:  -535.76147936128848   -5.35761e+02   8.31726e-03 DIIS\n   @DF-RKS iter   2:  -519.26225645749571    1.64992e+01   1.40647e-02 DIIS\n   @DF-RKS iter   3:  -540.21313130479268   -2.09509e+01   2.59337e-03 DIIS\n   @DF-RKS iter   4:  -540.58982217150594   -3.76691e-01   1.75051e-03 DIIS\n   @DF-RKS iter   5:  -540.79792607395052   -2.08104e-01   1.88913e-04 DIIS\n   @DF-RKS iter   6:  -540.80050359151630   -2.57752e-03   1.48459e-04 DIIS\n   @DF-RKS iter   7:  -540.80209132095126   -1.58773e-03   3.17981e-05 DIIS\n   @DF-RKS iter   8:  -540.80222948059372   -1.38160e-04   1.69697e-05 DIIS\n   @DF-RKS iter   9:  -540.80225852964770   -2.90491e-05   6.39490e-06 DIIS\n   @DF-RKS iter  10:  -540.80226384394132   -5.31429e-06   1.59104e-06 DIIS\n   @DF-RKS iter  11:  -540.80226437161252   -5.27671e-07   7.26196e-07 DIIS\n  Energy and wave function converged.\n\n  ==> Computing Non-Self-Consistent VV10 Energy Correction <==\n\n\n  ==> Post-Iterations <==\n\n    Orbital Energies [Eh]\n    ---------------------\n\n    Doubly Occupied:                                                      \n\n       1A    -19.956843     2A    -15.141946     3A    -15.141076  \n       4A    -15.129448     5A    -15.077911     6A    -15.069594  \n       7A    -10.973544     8A    -10.933244     9A    -10.906957  \n      10A    -10.887419    11A    -10.828900    12A     -1.267283  \n      13A     -1.232962    14A     -1.215277    15A     -1.113028  \n      16A     -1.091747    17A     -1.062909    18A     -0.937341  \n      19A     -0.822024    20A     -0.805148    21A     -0.760389  \n      22A     -0.730998    23A     -0.674971    24A     -0.668121  \n      25A     -0.642847    26A     -0.611668    27A     -0.593819  \n      28A     -0.565622    29A     -0.541730    30A     -0.539995  \n      31A     -0.537535    32A     -0.496949    33A     -0.428678  \n      34A     -0.402304    35A     -0.381542    36A     -0.376435  \n      37A     -0.368847    38A     -0.365280    39A     -0.271982  \n\n    Virtual:                                                              \n\n      40A      0.039066    41A      0.063151    42A      0.070871  \n      43A      0.081180    44A      0.082550    45A      0.104085  \n      46A      0.114579    47A      0.125539    48A      0.140077  \n      49A      0.182681    50A      0.185081    51A      0.197292  \n      52A      0.197946    53A      0.223223    54A      0.242569  \n      55A      0.251318    56A      0.266964    57A      0.275866  \n      58A      0.282014    59A      0.292108    60A      0.302918  \n      61A      0.306121    62A      0.321044    63A      0.336597  \n      64A      0.342229    65A      0.352103    66A      0.358630  \n      67A      0.360791    68A      0.364485    69A      0.372666  \n      70A      0.381363    71A      0.395771    72A      0.407074  \n      73A      0.418680    74A      0.434255    75A      0.437498  \n      76A      0.438224    77A      0.445070    78A      0.476734  \n      79A      0.491258    80A      0.494767    81A      0.505436  \n      82A      0.518716    83A      0.520893    84A      0.533412  \n      85A      0.556863    86A      0.563928    87A      0.575776  \n      88A      0.577482    89A      0.605781    90A      0.616131  \n      91A      0.626327    92A      0.635767    93A      0.638423  \n      94A      0.655390    95A      0.676567    96A      0.684564  \n      97A      0.700460    98A      0.705023    99A      0.734463  \n     100A      0.744563   101A      0.758742   102A      0.768529  \n     103A      0.780474   104A      0.788950   105A      0.797171  \n     106A      0.813084   107A      0.824640   108A      0.842392  \n     109A      0.853889   110A      0.863225   111A      0.915679  \n     112A      0.942977   113A      0.976393   114A      0.984729  \n     115A      1.009842   116A      1.046435   117A      1.061526  \n     118A      1.087617   119A      1.090653   120A      1.100808  \n     121A      1.124909   122A      1.148073   123A      1.167256  \n     124A      1.214661   125A      1.218223   126A      1.243460  \n     127A      1.263574   128A      1.267963   129A      1.294653  \n     130A      1.300246   131A      1.323957   132A      1.355090  \n     133A      1.362863   134A      1.375120   135A      1.386555  \n     136A      1.410183   137A      1.413992   138A      1.422276  \n     139A      1.434869   140A      1.460644   141A      1.486399  \n     142A      1.493043   143A      1.497893   144A      1.502925  \n     145A      1.512619   146A      1.552216   147A      1.559660  \n     148A      1.574791   149A      1.582671   150A      1.610387  \n     151A      1.617336   152A      1.638478   153A      1.648142  \n     154A      1.667663   155A      1.677222   156A      1.723134  \n     157A      1.740018   158A      1.751575   159A      1.773044  \n     160A      1.784007   161A      1.794574   162A      1.796843  \n     163A      1.815919   164A      1.838788   165A      1.844873  \n     166A      1.864131   167A      1.890193   168A      1.916535  \n     169A      1.920602   170A      1.946249   171A      1.948144  \n     172A      1.985738   173A      1.995695   174A      2.004106  \n     175A      2.016991   176A      2.027694   177A      2.052870  \n     178A      2.093792   179A      2.108991   180A      2.121099  \n     181A      2.124088   182A      2.141682   183A      2.174103  \n     184A      2.178077   185A      2.204198   186A      2.228191  \n     187A      2.241434   188A      2.243222   189A      2.268199  \n     190A      2.295523   191A      2.320215   192A      2.323542  \n     193A      2.354599   194A      2.394133   195A      2.400926  \n     196A      2.407715   197A      2.453759   198A      2.487356  \n     199A      2.519701   200A      2.550363   201A      2.610098  \n     202A      2.666619   203A      2.684421   204A      2.743649  \n     205A      2.803910   206A      2.826074   207A      2.874092  \n     208A      2.942336   209A      2.978074   210A      3.048740  \n     211A      3.065209   212A      3.075222   213A      3.126593  \n     214A      3.132256   215A      3.163861   216A      3.184525  \n     217A      3.199337   218A      3.243172   219A      3.282135  \n     220A      3.306852   221A      3.313055   222A      3.342654  \n     223A      3.358723   224A      3.391056   225A      3.412240  \n     226A      3.457671   227A      3.483088   228A      3.493305  \n     229A      3.520408   230A      3.540105   231A      3.559922  \n     232A      3.592991   233A      3.613156   234A      3.617314  \n     235A      3.659052   236A      3.666762   237A      3.675129  \n     238A      3.695022   239A      3.706051   240A      3.719269  \n     241A      3.740648   242A      3.765781   243A      3.802311  \n     244A      3.810168   245A      3.842948   246A      3.846605  \n     247A      3.866148   248A      3.891254   249A      3.937113  \n     250A      3.978277   251A      4.004780   252A      4.012026  \n     253A      4.037777   254A      4.055586   255A      4.101146  \n     256A      4.119475   257A      4.129555   258A      4.152262  \n     259A      4.160127   260A      4.181874   261A      4.193584  \n     262A      4.202007   263A      4.243750   264A      4.255567  \n     265A      4.257797   266A      4.259362   267A      4.277129  \n     268A      4.295826   269A      4.319007   270A      4.335339  \n     271A      4.357979   272A      4.372864   273A      4.389366  \n     274A      4.395752   275A      4.408272   276A      4.409648  \n     277A      4.417261   278A      4.438584   279A      4.449794  \n     280A      4.451920   281A      4.459206   282A      4.469823  \n     283A      4.512750   284A      4.522565   285A      4.532744  \n     286A      4.549499   287A      4.566426   288A      4.569538  \n     289A      4.575366   290A      4.586643   291A      4.591592  \n     292A      4.620952   293A      4.629982   294A      4.648660  \n     295A      4.649844   296A      4.658867   297A      4.679039  \n     298A      4.685954   299A      4.703246   300A      4.717084  \n     301A      4.728340   302A      4.757089   303A      4.776369  \n     304A      4.795419   305A      4.806605   306A      4.858092  \n     307A      4.870351   308A      4.876367   309A      4.916160  \n     310A      4.944391   311A      4.964463   312A      4.993422  \n     313A      4.996377   314A      5.024560   315A      5.054112  \n     316A      5.073563   317A      5.118140   318A      5.132216  \n     319A      5.137918   320A      5.146824   321A      5.149947  \n     322A      5.174353   323A      5.212813   324A      5.234531  \n     325A      5.239899   326A      5.250098   327A      5.305878  \n     328A      5.312054   329A      5.331332   330A      5.372454  \n     331A      5.381099   332A      5.409383   333A      5.417131  \n     334A      5.433306   335A      5.459983   336A      5.495517  \n     337A      5.522365   338A      5.527885   339A      5.545147  \n     340A      5.555466   341A      5.580214   342A      5.601090  \n     343A      5.611081   344A      5.650909   345A      5.656417  \n     346A      5.676891   347A      5.718304   348A      5.730978  \n     349A      5.745970   350A      5.755982   351A      5.762783  \n     352A      5.781353   353A      5.794366   354A      5.808029  \n     355A      5.851944   356A      5.861048   357A      5.872648  \n     358A      5.919867   359A      5.928884   360A      5.957428  \n     361A      5.973837   362A      5.981526   363A      6.004030  \n     364A      6.066560   365A      6.085957   366A      6.095263  \n     367A      6.158899   368A      6.181839   369A      6.197852  \n     370A      6.212558   371A      6.226263   372A      6.256062  \n     373A      6.304214   374A      6.363219   375A      6.393354  \n     376A      6.412947   377A      6.472503   378A      6.484361  \n     379A      6.546916   380A      6.598841   381A      6.628544  \n     382A      6.649253   383A      6.760748   384A      6.810092  \n     385A      6.826380   386A      6.844456   387A      6.908639  \n     388A      6.970843   389A      7.012859   390A      7.053146  \n     391A      7.098823   392A      7.120856   393A      7.248899  \n     394A      7.287529   395A      7.375278   396A      7.455005  \n     397A      7.596432   398A      8.111303   399A      8.881134  \n     400A      9.982091  \n\n    Final Occupation by Irrep:\n              A \n    DOCC [    39 ]\n\n  @DF-RKS Final Energy:  -540.69740664474568\n\n   => Energetics <=\n\n    Nuclear Repulsion Energy =            594.6969861901528702\n    One-Electron Energy =               -1915.6795584414294353\n    Two-Electron Energy =                 802.8324391791604739\n    DFT Exchange-Correlation Energy =     -22.6520420877887503\n    Empirical Dispersion Energy =           0.0000000000000000\n    VV10 Nonlocal Energy =                  0.1047685151590130\n    Total Energy =                       -540.6974066447457972\n\nComputation Completed\n\n\nProperties will be evaluated at   0.000000,   0.000000,   0.000000 [a0]\n\nProperties computed using the SCF density matrix\n\n  Nuclear Dipole Moment: [e a0]\n     X:    -2.6175      Y:     4.4557      Z:     1.0936\n\n  Electronic Dipole Moment: [e a0]\n     X:     1.3081      Y:    -1.9296      Z:    -0.7457\n\n  Dipole Moment: [e a0]\n     X:    -1.3094      Y:     2.5261      Z:     0.3480     Total:     2.8665\n\n  Dipole Moment: [D]\n     X:    -3.3281      Y:     6.4206      Z:     0.8844     Total:     7.2858\n\n\n*** tstop() called on z068 at Mon May 17 15:47:31 2021\nModule time:\n\tuser time   =     235.18 seconds =       3.92 minutes\n\tsystem time =      12.00 seconds =       0.20 minutes\n\ttotal time  =         12 seconds =       0.20 minutes\nTotal time:\n\tuser time   =     235.18 seconds =       3.92 minutes\n\tsystem time =      12.00 seconds =       0.20 minutes\n\ttotal time  =         12 seconds =       0.20 minutes\n\n*** tstart() called on z068\n*** at Mon May 17 15:47:31 2021\n\n   => Loading Basis Set <=\n\n    Name: (PCSEG-2 AUX)\n    Role: RIFIT\n    Keyword: DF_BASIS_MP2\n    atoms 1, 3, 7, 9-10 entry N          line   238 file /group/f97/kraus/miniconda3/envs/psi4-1.4a2.dev923/share/psi4/basis/def2-tzvpp-ri.gbs \n    atoms 2, 4-5, 8, 11 entry C          line   191 file /group/f97/kraus/miniconda3/envs/psi4-1.4a2.dev923/share/psi4/basis/def2-tzvpp-ri.gbs \n    atoms 6             entry O          line   285 file /group/f97/kraus/miniconda3/envs/psi4-1.4a2.dev923/share/psi4/basis/def2-tzvpp-ri.gbs \n    atoms 12-16         entry H          line    22 file /group/f97/kraus/miniconda3/envs/psi4-1.4a2.dev923/share/psi4/basis/def2-tzvpp-ri.gbs \n\n\t --------------------------------------------------------\n\t                          DF-MP2                         \n\t      2nd-Order Density-Fitted Moller-Plesset Theory     \n\t              RMP2 Wavefunction,  24 Threads             \n\t                                                         \n\t        Rob Parrish, Justin Turney, Andy Simmonett,      \n\t           Ed Hohenstein, and C. David Sherrill          \n\t --------------------------------------------------------\n\n   => Auxiliary Basis Set <=\n\n  Basis Set: (PCSEG-2 AUX)\n    Blend: DEF2-TZVPP-RI\n    Number of shells: 292\n    Number of basis function: 986\n    Number of Cartesian functions: 1220\n    Spherical Harmonics?: true\n    Max angular momentum: 4\n\n\t --------------------------------------------------------\n\t                 NBF =   400, NAUX =   986\n\t --------------------------------------------------------\n\t   CLASS    FOCC     OCC    AOCC    AVIR     VIR    FVIR\n\t   PAIRS      11      39      28     361     361       0\n\t --------------------------------------------------------\n\n\t-----------------------------------------------------------\n\t ==================> DF-MP2 Energies <==================== \n\t-----------------------------------------------------------\n\t Reference Energy          =    -540.6974066447456835 [Eh]\n\t Singles Energy            =      -0.0000000000000000 [Eh]\n\t Same-Spin Energy          =      -0.6040470659966629 [Eh]\n\t Opposite-Spin Energy      =      -1.6316836440036413 [Eh]\n\t Correlation Energy        =      -2.2357307100003041 [Eh]\n\t Total Energy              =    -542.9331373547460089 [Eh]\n\t-----------------------------------------------------------\n\t ================> DF-SCS-MP2 Energies <================== \n\t-----------------------------------------------------------\n\t SCS Same-Spin Scale       =       0.2200000000000000 [-]\n\t SCS Opposite-Spin Scale   =       0.5200000000000000 [-]\n\t SCS Same-Spin Energy      =      -0.1328903545192658 [Eh]\n\t SCS Opposite-Spin Energy  =      -0.8484754948818936 [Eh]\n\t SCS Correlation Energy    =      -2.1593693948032571 [Eh]\n\t SCS Total Energy          =    -542.8567760395488904 [Eh]\n\t-----------------------------------------------------------\n\n\n\n    DSD-PBEP86-NL Energy Summary\n    ----------------------------\n    DFT Reference Energy                  =  -540.6974066447456835\n    Scaled MP2 Correlation                =    -0.9813658494011595\n    @Final double-hybrid DFT total energy =  -541.6787724941468696\n\n\n*** tstop() called on z068 at Mon May 17 15:47:34 2021\nModule time:\n\tuser time   =      41.92 seconds =       0.70 minutes\n\tsystem time =       1.96 seconds =       0.03 minutes\n\ttotal time  =          3 seconds =       0.05 minutes\nTotal time:\n\tuser time   =     277.12 seconds =       4.62 minutes\n\tsystem time =      13.96 seconds =       0.23 minutes\n\ttotal time  =         15 seconds =       0.25 minutes\n\n    Psi4 stopped on: Monday, 17 May 2021 03:47PM\n    Psi4 wall time for execution: 0:00:15.27\n\n*** Psi4 exiting successfully. Buy a developer a beer!\n",
 "stderr": null,
 "success": true,
 "error": null,
 "tag": "dsd-pbep86-nl pcseg-2 ggg_a"
}