{
 "id": null,
 "schema_name": "qcschema_output",
 "schema_version": 1,
 "molecule": {
  "validated": true,
  "symbols": [
   "N",
   "C",
   "N",
   "C",
   "C",
   "O",
   "N",
   "C",
   "N",
   "N",
   "C",
   "H",
   "H",
   "H",
   "H",
   "H"
  ],
  "geometry": [
   1.9795091944628953,
   2.1064834459358144,
   -3.2710258001379717,
   3.442157215567254,
   0.044792243061322456,
   -3.8587306251553546,
   3.037755824719278,
   -1.9205229274148177,
   -2.447105209438357,
   1.132911890257787,
   -1.157073572729854,
   -0.8011537541645827,
   -0.012262141769655687,
   -2.415631172284768,
   1.2151840216989083,
   0.2787556815508495,
   -4.558580598553946,
   1.9767436502584184,
   -1.7942738780763894,
   -0.8301509530256518,
   2.4756313473792826,
   -2.3895376075956043,
   1.6208238316931525,
   1.8860367962364304,
   -4.060055502500323,
   2.879381431248068,
   3.327897829960767,
   -1.346408786342883,
   2.818910195233415,
   -0.06605029136148673,
   0.4469413067165973,
   1.3279162822471884,
   -1.2830339161563362,
   1.9190379584482442,
   3.80723695884786,
   -4.140299817848581,
   -2.720239679550724,
   -1.6994249707362516,
   3.9722944387418746,
   4.817877834900553,
   0.1317196448323844,
   -5.370511525521616,
   -4.434221275340973,
   4.678400702683921,
   2.8233409544635233,
   -4.866968558070816,
   2.102703993684897,
   4.9095985969689675
  ],
  "name": "C5H5N5O",
  "molecular_charge": 0.0,
  "molecular_multiplicity": 1,
  "masses": [
   14.00307400443,
   12.0,
   14.00307400443,
   12.0,
   12.0,
   15.99491461957,
   14.00307400443,
   12.0,
   14.00307400443,
   14.00307400443,
   12.0,
   1.00782503223,
   1.00782503223,
   1.00782503223,
   1.00782503223,
   1.00782503223
  ],
  "real": [
   true,
   true,
   true,
   true,
   true,
   true,
   true,
   true,
   true,
   true,
   true,
   true,
   true,
   true,
   true,
   true
  ],
  "atom_labels": [
   "",
   "",
   "",
   "",
   "",
   "",
   "",
   "",
   "",
   "",
   "",
   "",
   "",
   "",
   "",
   ""
  ],
  "atomic_numbers": [
   7,
   6,
   7,
   6,
   6,
   8,
   7,
   6,
   7,
   7,
   6,
   1,
   1,
   1,
   1,
   1
  ],
  "mass_numbers": [
   14,
   12,
   14,
   12,
   12,
   16,
   14,
   12,
   14,
   14,
   12,
   1,
   1,
   1,
   1,
   1
  ],
  "fragments": [
   [
    0,
    1,
    2,
    3,
    4,
    5,
    6,
    7,
    8,
    9,
    10,
    11,
    12,
    13,
    14,
    15
   ]
  ],
  "fragment_charges": [
   0.0
  ],
  "fragment_multiplicities": [
   1
  ],
  "fix_com": false,
  "fix_orientation": false,
  "provenance": {
   "creator": "QCElemental",
   "version": "v0.19.0",
   "routine": "qcelemental.molparse.from_string"
  }
 },
 "driver": "energy",
 "model": {
  "method": "b2plyp-d3bj",
  "basis": "aug-pcseg-2"
 },
 "keywords": {
  "guess": "SAP",
  "freeze_core": "true",
  "dft_vv10_postscf": "true"
 },
 "protocols": {},
 "extras": {
  "qcvars": {
   "2-BODY DISPERSION CORRECTION ENERGY": -0.01353257,
   "B2PLYP-D3(BJ) DISPERSION CORRECTION ENERGY": -0.01353257,
   "B2PLYP-D3BJ DOUBLE-HYBRID CORRECTION ENERGY": -0.6577411483909628,
   "B2PLYP-D3BJ TOTAL ENERGY": -542.3645782984391,
   "CURRENT DIPOLE X": -3.2308185371488403,
   "CURRENT DIPOLE Y": 6.301229897446448,
   "CURRENT DIPOLE Z": 0.8186268311166637,
   "CURRENT ENERGY": -542.3645782984391,
   "CURRENT REFERENCE ENERGY": -541.7068371500482,
   "DFT FUNCTIONAL TOTAL ENERGY": -541.6933045800481,
   "DFT TOTAL ENERGY": -542.3645782984391,
   "DFT VV10 ENERGY": 0.0,
   "DFT XC ENERGY": -34.60159195478784,
   "DISPERSION CORRECTION ENERGY": -0.01353257,
   "DOUBLE-HYBRID CORRECTION ENERGY": -0.6577411483909628,
   "NUCLEAR REPULSION ENERGY": 594.6969861901529,
   "ONE-ELECTRON ENERGY": -1916.1346275654892,
   "PCM POLARIZATION ENERGY": 0.0,
   "PE ENERGY": 0.0,
   "SCF DIPOLE X": -3.2308185371488403,
   "SCF DIPOLE Y": 6.301229897446448,
   "SCF DIPOLE Z": 0.8186268311166637,
   "SCF ITERATION ENERGY": -541.7068371500482,
   "SCF ITERATIONS": 12.0,
   "SCF TOTAL ENERGY": -541.7068371500482,
   "TWO-ELECTRON ENERGY": 814.3459287500759,
   "XC GRID RADIAL POINTS": 75.0,
   "XC GRID SPHERICAL POINTS": 302.0,
   "XC GRID TOTAL POINTS": 338288.0,
   "CURRENT DIPOLE": [
    -1.2711018184917968,
    2.479094597633253,
    0.3220725775013191
   ],
   "SCF DIPOLE": [
    -1.2711018184917968,
    2.479094597633253,
    0.3220725775013191
   ]
  }
 },
 "provenance": {
  "creator": "Psi4",
  "version": "1.4a2.dev923",
  "routine": "psi4.schema_runner.run_qcschema",
  "qcengine_version": "v0.16.0",
  "cpu": "Intel(R) Xeon(R) CPU E5-2680 v4 @ 2.40GHz",
  "username": "kraus",
  "nthreads": 24,
  "memory": 120.0,
  "wall_time": 45.51390075683594,
  "hostname": "z069"
 },
 "properties": {
  "calcinfo_nbasis": 621,
  "calcinfo_nmo": 620,
  "calcinfo_nalpha": 39,
  "calcinfo_nbeta": 39,
  "calcinfo_natom": 16,
  "nuclear_repulsion_energy": 594.6969861901529,
  "return_energy": -542.3645782984391,
  "scf_one_electron_energy": -1916.1346275654892,
  "scf_two_electron_energy": 814.3459287500759,
  "scf_xc_energy": -34.60159195478784,
  "scf_dispersion_correction_energy": -0.01353257,
  "scf_dipole_moment": [
   -1.2711018184917968,
   2.479094597633253,
   0.3220725775013191
  ],
  "scf_total_energy": -541.7068371500482,
  "scf_iterations": 12
 },
 "wavefunction": null,
 "return_result": -542.3645782984391,
 "stdout": "\n    -----------------------------------------------------------------------\n          Psi4: An Open-Source Ab Initio Electronic Structure Package\n                               Psi4 1.4a2.dev923 \n\n                         Git: Rev {master} 5de566e \n\n\n    D. G. A. Smith, L. A. Burns, A. C. Simmonett, R. M. Parrish,\n    M. C. Schieber, R. Galvelis, P. Kraus, H. Kruse, R. Di Remigio,\n    A. Alenaizan, A. M. James, S. Lehtola, J. P. Misiewicz, M. Scheurer,\n    R. A. Shaw, J. B. Schriber, Y. Xie, Z. L. Glick, D. A. Sirianni,\n    J. S. O'Brien, J. M. Waldrop, A. Kumar, E. G. Hohenstein,\n    B. P. Pritchard, B. R. Brooks, H. F. Schaefer III, A. Yu. Sokolov,\n    K. Patkowski, A. E. DePrince III, U. Bozkaya, R. A. King,\n    F. A. Evangelista, J. M. Turney, T. D. Crawford, C. D. Sherrill,\n    J. Chem. Phys. 152(18) 184108 (2020). https://doi.org/10.1063/5.0006002\n\n                            Additional Code Authors\n    E. T. Seidl, C. L. Janssen, E. F. Valeev, M. L. Leininger,\n    J. F. Gonthier, R. M. Richard, H. R. McAlexander, M. Saitow, X. Wang,\n    P. Verma, and M. H. Lechner\n\n             Previous Authors, Complete List of Code Contributors,\n                       and Citations for Specific Modules\n    https://github.com/psi4/psi4/blob/master/codemeta.json\n    https://github.com/psi4/psi4/graphs/contributors\n    http://psicode.org/psi4manual/master/introduction.html#citing-psifour\n\n    -----------------------------------------------------------------------\n\n\n    Psi4 started on: Monday, 17 May 2021 06:34PM\n\n    Process ID: 22295\n    Host:       z069\n    PSIDATADIR: /group/f97/kraus/miniconda3/envs/psi4-1.4a2.dev923/share/psi4\n    Memory:     111.8 GiB\n    Threads:    24\n    \n  ==> Input QCSchema <==\n\n--------------------------------------------------------------------------\n{'driver': 'energy',\n 'extras': {},\n 'id': None,\n 'keywords': {'dft_vv10_postscf': 'true', 'freeze_core': 'true', 'guess': 'SAP'},\n 'model': {'basis': 'aug-pcseg-2', 'method': 'b2plyp-d3bj'},\n 'molecule': {'atom_labels': ['', '', '', '', '', '', '', '', '', '', '', '', '', '', '', ''],\n              'atomic_numbers': [7, 6, 7, 6, 6, 8, 7, 6, 7, 7, 6, 1, 1, 1, 1, 1],\n              'fix_com': False,\n              'fix_orientation': False,\n              'fragment_charges': [0.0],\n              'fragment_multiplicities': [1],\n              'fragments': [[0, 1, 2, 3, 4, 5, 6, 7, 8, 9, 10, 11, 12, 13, 14, 15]],\n              'geometry': [1.9795091944628904, 2.10648344593581, -3.2710258001380055, 3.4421572155672493,\n                           0.044792243061317905, -3.8587306251553883, 3.037755824719273, -1.9205229274148223,\n                           -2.4471052094383907, 1.1329118902577822, -1.1570735727298587, -0.8011537541646163,\n                           -0.012262141769660673, -2.4156311722847725, 1.2151840216988745, 0.2787556815508445,\n                           -4.5585805985539505, 1.9767436502583846, -1.7942738780763943, -0.8301509530256563,\n                           2.475631347379249, -2.389537607595609, 1.6208238316931478, 1.8860367962363966,\n                           -4.060055502500329, 2.8793814312480634, 3.327897829960733, -1.346408786342888,\n                           2.8189101952334106, -0.06605029136152041, 0.4469413067165923, 1.3279162822471837,\n                           -1.28303391615637, 1.9190379584482393, 3.8072369588478554, -4.140299817848614,\n                           -2.720239679550729, -1.6994249707362563, 3.972294438741841, 4.817877834900548,\n                           0.13171964483237986, -5.37051152552165, -4.434221275340978, 4.678400702683916,\n                           2.8233409544634895, -4.8669685580708215, 2.1027039936848926, 4.909598596968934],\n              'mass_numbers': [14, 12, 14, 12, 12, 16, 14, 12, 14, 14, 12, 1, 1, 1, 1, 1],\n              'masses': [14.00307400443, 12.0, 14.00307400443, 12.0, 12.0, 15.99491461957, 14.00307400443, 12.0,\n                         14.00307400443, 14.00307400443, 12.0, 1.00782503223, 1.00782503223, 1.00782503223,\n                         1.00782503223, 1.00782503223],\n              'molecular_charge': 0.0,\n              'molecular_multiplicity': 1,\n              'name': 'C5H5N5O',\n              'provenance': {'creator': 'QCElemental',\n                             'routine': 'qcelemental.molparse.from_string',\n                             'version': 'v0.19.0'},\n              'real': [True, True, True, True, True, True, True, True, True, True, True, True, True, True, True, True],\n              'symbols': ['N', 'C', 'N', 'C', 'C', 'O', 'N', 'C', 'N', 'N', 'C', 'H', 'H', 'H', 'H', 'H'],\n              'validated': True},\n 'protocols': {},\n 'provenance': {'creator': 'QCElemental', 'routine': 'qcelemental.models.results', 'version': 'v0.16.0'},\n 'schema_name': 'qcschema_input',\n 'schema_version': 1}\n--------------------------------------------------------------------------\n\nScratch directory: /scratch/f97/kraus/scratch/tmpp3vv5rpw_psi_scratch/\n\n*** tstart() called on z069\n*** at Mon May 17 18:34:17 2021\n\n   => Loading Basis Set <=\n\n    Name: AUG-PCSEG-2\n    Role: ORBITAL\n    Keyword: BASIS\n    atoms 1, 3, 7, 9-10 entry N          line   201 file /group/f97/kraus/miniconda3/envs/psi4-1.4a2.dev923/share/psi4/basis/aug-pcseg-2.gbs \n    atoms 2, 4-5, 8, 11 entry C          line   161 file /group/f97/kraus/miniconda3/envs/psi4-1.4a2.dev923/share/psi4/basis/aug-pcseg-2.gbs \n    atoms 6             entry O          line   241 file /group/f97/kraus/miniconda3/envs/psi4-1.4a2.dev923/share/psi4/basis/aug-pcseg-2.gbs \n    atoms 12-16         entry H          line    13 file /group/f97/kraus/miniconda3/envs/psi4-1.4a2.dev923/share/psi4/basis/aug-pcseg-2.gbs \n\n   => B2PLYP-D3(BJ): Empirical Dispersion <=\n\n    Grimme's -D3 (BJ-damping) Dispersion Correction\n    Grimme S.; Ehrlich S.; Goerigk L. (2011), J. Comput. Chem., 32: 1456\n    Parametrisation from:    L. Goerigk, S. Grimme, Phys. Chem. Chem. Phys. 13, 6670-6688, 2011\n\n        s6 =       0.640000\n        s8 =       0.914700\n        a1 =       0.306500\n        a2 =       5.057000\n\n\n         ---------------------------------------------------------\n                                   SCF\n               by Justin Turney, Rob Parrish, Andy Simmonett\n                          and Daniel G. A. Smith\n                              RKS Reference\n                       24 Threads, 114440 MiB Core\n         ---------------------------------------------------------\n\n  ==> Geometry <==\n\n    Molecular point group: c1\n    Full point group: C1\n\n    Geometry (in Bohr), charge = 0, multiplicity = 1:\n\n       Center              X                  Y                   Z               Mass       \n    ------------   -----------------  -----------------  -----------------  -----------------\n         N            1.979509194463     2.106483445936    -3.271025800138    14.003074004430\n         C            3.442157215567     0.044792243061    -3.858730625155    12.000000000000\n         N            3.037755824719    -1.920522927415    -2.447105209438    14.003074004430\n         C            1.132911890258    -1.157073572730    -0.801153754165    12.000000000000\n         C           -0.012262141770    -2.415631172285     1.215184021699    12.000000000000\n         O            0.278755681551    -4.558580598554     1.976743650258    15.994914619570\n         N           -1.794273878076    -0.830150953026     2.475631347379    14.003074004430\n         C           -2.389537607596     1.620823831693     1.886036796236    12.000000000000\n         N           -4.060055502500     2.879381431248     3.327897829961    14.003074004430\n         N           -1.346408786343     2.818910195233    -0.066050291361    14.003074004430\n         C            0.446941306717     1.327916282247    -1.283033916156    12.000000000000\n         H            1.919037958448     3.807236958848    -4.140299817849     1.007825032230\n         H           -2.720239679551    -1.699424970736     3.972294438742     1.007825032230\n         H            4.817877834901     0.131719644832    -5.370511525522     1.007825032230\n         H           -4.434221275341     4.678400702684     2.823340954464     1.007825032230\n         H           -4.866968558071     2.102703993685     4.909598596969     1.007825032230\n\n  Running in c1 symmetry.\n\n  Rotational constants: A =      0.06486  B =      0.03693  C =      0.02354 [cm^-1]\n  Rotational constants: A =   1944.44089  B =   1107.15421  C =    705.76789 [MHz]\n  Nuclear repulsion =  594.696986190152870\n\n  Charge       = 0\n  Multiplicity = 1\n  Electrons    = 78\n  Nalpha       = 39\n  Nbeta        = 39\n\n  ==> Algorithm <==\n\n  SCF Algorithm Type is DF.\n  DIIS enabled.\n  MOM disabled.\n  Fractional occupation disabled.\n  Guess Type is SAP.\n  Energy threshold   = 1.00e-06\n  Density threshold  = 1.00e-06\n  Integral threshold = 0.00e+00\n\n  ==> Primary Basis <==\n\n  Basis Set: AUG-PCSEG-2\n    Blend: AUG-PCSEG-2\n    Number of shells: 199\n    Number of basis function: 621\n    Number of Cartesian functions: 730\n    Spherical Harmonics?: true\n    Max angular momentum: 3\n\n  ==> DFT Potential <==\n\n   => Composite Functional: B2PLYP-D3BJ <= \n\n    B2PLYP Double Hybrid Exchange-Correlation Functional\n\n    S. Grimme, J. Chem. Phys., 124, 034108, 2006\n\n\n    Deriv               =              1\n    GGA                 =           TRUE\n    Meta                =          FALSE\n\n    Exchange Hybrid     =           TRUE\n    MP2 Hybrid          =           TRUE\n\n   => Exchange Functionals <=\n\n    0.4700     XC_GGA_X_B88\n\n   => Exact (HF) Exchange <=\n\n    0.5300               HF \n\n   => Correlation Functionals <=\n\n    0.7300     XC_GGA_C_LYP\n\n   => MP2 Correlation <=\n\n    0.2700       MP2 \n\n   => LibXC Density Thresholds  <==\n\n    XC_GGA_C_LYP:  1.00E-32 \n    XC_GGA_X_B88:  1.00E-25 \n\n   => Molecular Quadrature <=\n\n    Radial Scheme          =       TREUTLER\n    Pruning Scheme         =           NONE\n    Nuclear Scheme         =       TREUTLER\n\n    BS radius alpha        =              1\n    Pruning alpha          =              1\n    Radial Points          =             75\n    Spherical Points       =            302\n    Total Points           =         338290\n    Total Blocks           =           2516\n    Max Points             =            256\n    Max Functions          =            578\n    Weights Tolerance      =       1.00E-15\n\n   => Loading Basis Set <=\n\n    Name: (AUG-PCSEG-2 AUX)\n    Role: JKFIT\n    Keyword: DF_BASIS_SCF\n    atoms 1, 3, 7, 9-10 entry N          line   258 file /group/f97/kraus/miniconda3/envs/psi4-1.4a2.dev923/share/psi4/basis/def2-universal-jkfit.gbs \n    atoms 2, 4-5, 8, 11 entry C          line   198 file /group/f97/kraus/miniconda3/envs/psi4-1.4a2.dev923/share/psi4/basis/def2-universal-jkfit.gbs \n    atoms 6             entry O          line   318 file /group/f97/kraus/miniconda3/envs/psi4-1.4a2.dev923/share/psi4/basis/def2-universal-jkfit.gbs \n    atoms 12-16         entry H          line    18 file /group/f97/kraus/miniconda3/envs/psi4-1.4a2.dev923/share/psi4/basis/def2-universal-jkfit.gbs \n\n  ==> Integral Setup <==\n\n  DFHelper Memory: AOs need 2.671 GiB; user supplied 79.266 GiB. Using in-core AOs.\n\n  ==> MemDFJK: Density-Fitted J/K Matrices <==\n\n    J tasked:                   Yes\n    K tasked:                   Yes\n    wK tasked:                   No\n    OpenMP threads:              24\n    Memory [MiB]:             81168\n    Algorithm:                 Core\n    Schwarz Cutoff:           1E-12\n    Mask sparsity (%):       5.4439\n    Fitting Condition:        1E-10\n\n   => Auxiliary Basis Set <=\n\n  Basis Set: (AUG-PCSEG-2 AUX)\n    Blend: DEF2-UNIVERSAL-JKFIT\n    Number of shells: 305\n    Number of basis function: 927\n    Number of Cartesian functions: 1103\n    Spherical Harmonics?: true\n    Max angular momentum: 4\n\n  Cached 100.0% of DFT collocation blocks in 4.553 [GiB].\n\n  Minimum eigenvalue in the overlap matrix is 2.9232727536E-08.\n  Reciprocal condition number of the overlap matrix is 1.3703700200E-09.\n    Using canonical orthogonalization.\n  Overall, 1 of 621 possible MOs eliminated.\n\n\n  ==> Pre-Iterations <==\n\n  SCF Guess: Superposition of Atomic Potentials (doi:10.1021/acs.jctc.8b01089).\n\n  ==> SAP guess <==\n\n   => Molecular Quadrature <=\n\n    Radial Scheme          =       TREUTLER\n    Pruning Scheme         =           NONE\n    Nuclear Scheme         =       TREUTLER\n\n    BS radius alpha        =              1\n    Pruning alpha          =              1\n    Radial Points          =             75\n    Spherical Points       =            302\n    Total Points           =         338288\n    Total Blocks           =           2519\n    Max Points             =            256\n    Max Functions          =            578\n    Weights Tolerance      =       1.00E-15\n\n   -------------------------------------------------------\n    Irrep   Nso     Nmo     Nalpha   Nbeta   Ndocc  Nsocc\n   -------------------------------------------------------\n     A        621     620      39      39      39       0\n   -------------------------------------------------------\n    Total     621     620      39      39      39       0\n   -------------------------------------------------------\n\n  ==> Iterations <==\n\n                           Total Energy        Delta E     RMS |[F,P]|\n\n   @DF-RKS iter   1:  -536.74657191263066   -5.36747e+02   5.30163e-03 DIIS\n   @DF-RKS iter   2:  -490.12404588935846    4.66225e+01   1.09929e-02 DIIS\n   @DF-RKS iter   3:  -540.44637738812605   -5.03223e+01   2.48248e-03 DIIS\n   @DF-RKS iter   4:  -541.22413755746322   -7.77760e-01   1.66709e-03 DIIS\n   @DF-RKS iter   5:  -541.67621029006818   -4.52073e-01   3.96810e-04 DIIS\n   @DF-RKS iter   6:  -541.69868853461787   -2.24782e-02   2.17416e-04 DIIS\n   @DF-RKS iter   7:  -541.70647955936704   -7.79102e-03   3.86586e-05 DIIS\n   @DF-RKS iter   8:  -541.70673809845459   -2.58539e-04   1.86667e-05 DIIS\n   @DF-RKS iter   9:  -541.70682231589649   -8.42174e-05   6.81599e-06 DIIS\n   @DF-RKS iter  10:  -541.70683453992535   -1.22240e-05   3.32524e-06 DIIS\n   @DF-RKS iter  11:  -541.70683699076824   -2.45084e-06   7.20404e-07 DIIS\n   @DF-RKS iter  12:  -541.70683715004816   -1.59280e-07   1.94655e-07 DIIS\n  Energy and wave function converged.\n\n\n  ==> Post-Iterations <==\n\n    Orbital Energies [Eh]\n    ---------------------\n\n    Doubly Occupied:                                                      \n\n       1A    -19.681404     2A    -14.902685     3A    -14.900445  \n       4A    -14.890000     5A    -14.839007     6A    -14.829976  \n       7A    -10.768840     8A    -10.730498     9A    -10.704883  \n      10A    -10.686982    11A    -10.631840    12A     -1.195612  \n      13A     -1.163890    14A     -1.146825    15A     -1.049571  \n      16A     -1.028722    17A     -1.001858    18A     -0.881406  \n      19A     -0.774462    20A     -0.758337    21A     -0.716311  \n      22A     -0.689848    23A     -0.635828    24A     -0.629326  \n      25A     -0.605159    26A     -0.574068    27A     -0.556089  \n      28A     -0.531821    29A     -0.506459    30A     -0.504329  \n      31A     -0.500543    32A     -0.463927    33A     -0.393889  \n      34A     -0.373811    35A     -0.352461    36A     -0.343396  \n      37A     -0.340219    38A     -0.335061    39A     -0.253412  \n\n    Virtual:                                                              \n\n      40A     -0.010811    41A      0.002798    42A      0.014171  \n      43A      0.024413    44A      0.026272    45A      0.030860  \n      46A      0.033363    47A      0.045542    48A      0.046176  \n      49A      0.047509    50A      0.050113    51A      0.055401  \n      52A      0.055678    53A      0.060000    54A      0.062548  \n      55A      0.069730    56A      0.070592    57A      0.076477  \n      58A      0.079118    59A      0.085636    60A      0.087984  \n      61A      0.088760    62A      0.089393    63A      0.090633  \n      64A      0.099072    65A      0.108818    66A      0.111247  \n      67A      0.112907    68A      0.114497    69A      0.115895  \n      70A      0.121156    71A      0.125164    72A      0.125658  \n      73A      0.127784    74A      0.130827    75A      0.135628  \n      76A      0.140767    77A      0.143158    78A      0.148129  \n      79A      0.158011    80A      0.168813    81A      0.170711  \n      82A      0.175347    83A      0.177596    84A      0.180702  \n      85A      0.182043    86A      0.186459    87A      0.187134  \n      88A      0.190471    89A      0.196485    90A      0.198096  \n      91A      0.202881    92A      0.207137    93A      0.209727  \n      94A      0.213872    95A      0.213945    96A      0.217671  \n      97A      0.225688    98A      0.231773    99A      0.234584  \n     100A      0.236377   101A      0.240770   102A      0.243453  \n     103A      0.247838   104A      0.250414   105A      0.252930  \n     106A      0.259721   107A      0.265667   108A      0.268165  \n     109A      0.272030   110A      0.273379   111A      0.281839  \n     112A      0.283455   113A      0.287084   114A      0.290494  \n     115A      0.291962   116A      0.293318   117A      0.297883  \n     118A      0.304447   119A      0.308282   120A      0.311844  \n     121A      0.313903   122A      0.320506   123A      0.325205  \n     124A      0.327102   125A      0.328298   126A      0.331104  \n     127A      0.333626   128A      0.344948   129A      0.349402  \n     130A      0.351882   131A      0.354003   132A      0.356054  \n     133A      0.359113   134A      0.364022   135A      0.374644  \n     136A      0.376173   137A      0.379733   138A      0.390928  \n     139A      0.392509   140A      0.395868   141A      0.401100  \n     142A      0.404533   143A      0.409945   144A      0.412279  \n     145A      0.416948   146A      0.423747   147A      0.427746  \n     148A      0.429115   149A      0.431786   150A      0.433409  \n     151A      0.437587   152A      0.442410   153A      0.445543  \n     154A      0.446195   155A      0.454867   156A      0.457449  \n     157A      0.460745   158A      0.465250   159A      0.468035  \n     160A      0.468384   161A      0.471026   162A      0.478044  \n     163A      0.481938   164A      0.484822   165A      0.490482  \n     166A      0.491253   167A      0.495001   168A      0.499484  \n     169A      0.506029   170A      0.508317   171A      0.512648  \n     172A      0.515255   173A      0.520027   174A      0.524903  \n     175A      0.527751   176A      0.533067   177A      0.536539  \n     178A      0.538750   179A      0.541624   180A      0.544558  \n     181A      0.547515   182A      0.548265   183A      0.550621  \n     184A      0.555325   185A      0.564831   186A      0.567434  \n     187A      0.575399   188A      0.578156   189A      0.581486  \n     190A      0.586657   191A      0.591731   192A      0.595406  \n     193A      0.596374   194A      0.597814   195A      0.599837  \n     196A      0.602648   197A      0.605238   198A      0.611418  \n     199A      0.618690   200A      0.622246   201A      0.627328  \n     202A      0.634429   203A      0.644840   204A      0.645773  \n     205A      0.652912   206A      0.657010   207A      0.658367  \n     208A      0.663748   209A      0.665348   210A      0.670950  \n     211A      0.684122   212A      0.686117   213A      0.689414  \n     214A      0.695304   215A      0.697918   216A      0.707901  \n     217A      0.713726   218A      0.718415   219A      0.721997  \n     220A      0.725913   221A      0.738212   222A      0.740336  \n     223A      0.747045   224A      0.752071   225A      0.763141  \n     226A      0.768935   227A      0.772551   228A      0.776567  \n     229A      0.781633   230A      0.786980   231A      0.789413  \n     232A      0.795502   233A      0.803332   234A      0.811905  \n     235A      0.816850   236A      0.820681   237A      0.823014  \n     238A      0.829931   239A      0.831921   240A      0.846720  \n     241A      0.847008   242A      0.850632   243A      0.853580  \n     244A      0.857650   245A      0.858862   246A      0.868802  \n     247A      0.873234   248A      0.875541   249A      0.877660  \n     250A      0.879732   251A      0.890510   252A      0.896344  \n     253A      0.901141   254A      0.913279   255A      0.914926  \n     256A      0.926662   257A      0.935719   258A      0.938120  \n     259A      0.948897   260A      0.950392   261A      0.953522  \n     262A      0.956188   263A      0.960777   264A      0.970103  \n     265A      0.971850   266A      0.983022   267A      0.990197  \n     268A      0.994070   269A      1.003756   270A      1.007633  \n     271A      1.009448   272A      1.016428   273A      1.020972  \n     274A      1.027069   275A      1.030948   276A      1.036640  \n     277A      1.041057   278A      1.044318   279A      1.053855  \n     280A      1.059102   281A      1.066485   282A      1.069825  \n     283A      1.074442   284A      1.076834   285A      1.086524  \n     286A      1.092730   287A      1.103868   288A      1.106669  \n     289A      1.109078   290A      1.120765   291A      1.126463  \n     292A      1.129861   293A      1.138540   294A      1.140884  \n     295A      1.149165   296A      1.155279   297A      1.166111  \n     298A      1.167983   299A      1.169630   300A      1.174407  \n     301A      1.184996   302A      1.189781   303A      1.194078  \n     304A      1.203734   305A      1.228183   306A      1.235722  \n     307A      1.238553   308A      1.240556   309A      1.245663  \n     310A      1.249956   311A      1.258785   312A      1.271020  \n     313A      1.280961   314A      1.287366   315A      1.290826  \n     316A      1.299780   317A      1.309349   318A      1.323076  \n     319A      1.329697   320A      1.334078   321A      1.350727  \n     322A      1.359480   323A      1.368333   324A      1.374925  \n     325A      1.387956   326A      1.397295   327A      1.406235  \n     328A      1.417811   329A      1.437525   330A      1.440033  \n     331A      1.449965   332A      1.459591   333A      1.469819  \n     334A      1.486795   335A      1.495603   336A      1.518616  \n     337A      1.528834   338A      1.593391   339A      1.626222  \n     340A      1.630257   341A      1.642161   342A      1.656587  \n     343A      1.663394   344A      1.679612   345A      1.701894  \n     346A      1.716199   347A      1.731281   348A      1.748684  \n     349A      1.762606   350A      1.769939   351A      1.803248  \n     352A      1.810072   353A      1.823985   354A      1.834865  \n     355A      1.846788   356A      1.859731   357A      1.863614  \n     358A      1.884159   359A      1.896290   360A      1.911592  \n     361A      1.913322   362A      1.934549   363A      1.943335  \n     364A      1.954901   365A      1.981342   366A      1.986223  \n     367A      2.001423   368A      2.014035   369A      2.025816  \n     370A      2.038714   371A      2.039686   372A      2.063081  \n     373A      2.083244   374A      2.091033   375A      2.118173  \n     376A      2.123526   377A      2.144236   378A      2.145233  \n     379A      2.156346   380A      2.158411   381A      2.160490  \n     382A      2.172865   383A      2.195482   384A      2.222691  \n     385A      2.228513   386A      2.236574   387A      2.246771  \n     388A      2.271172   389A      2.274035   390A      2.276918  \n     391A      2.294151   392A      2.315765   393A      2.323686  \n     394A      2.345227   395A      2.365421   396A      2.377945  \n     397A      2.380068   398A      2.417036   399A      2.418923  \n     400A      2.456493   401A      2.466552   402A      2.493556  \n     403A      2.516545   404A      2.525329   405A      2.527025  \n     406A      2.552034   407A      2.568120   408A      2.594751  \n     409A      2.596295   410A      2.625751   411A      2.648199  \n     412A      2.648903   413A      2.675067   414A      2.697912  \n     415A      2.701091   416A      2.711708   417A      2.757810  \n     418A      2.767070   419A      2.808694   420A      2.831957  \n     421A      2.932465   422A      2.965533   423A      2.999730  \n     424A      3.026453   425A      3.141714   426A      3.155874  \n     427A      3.215192   428A      3.241689   429A      3.272692  \n     430A      3.288754   431A      3.315505   432A      3.326308  \n     433A      3.364024   434A      3.371887   435A      3.404194  \n     436A      3.416645   437A      3.423405   438A      3.429827  \n     439A      3.469363   440A      3.481070   441A      3.514712  \n     442A      3.543755   443A      3.559742   444A      3.591570  \n     445A      3.624538   446A      3.642448   447A      3.650514  \n     448A      3.680134   449A      3.693288   450A      3.709860  \n     451A      3.718669   452A      3.736667   453A      3.753800  \n     454A      3.763951   455A      3.781910   456A      3.804622  \n     457A      3.819511   458A      3.848372   459A      3.874970  \n     460A      3.891438   461A      3.901436   462A      3.914481  \n     463A      3.934193   464A      3.970855   465A      3.987815  \n     466A      4.004362   467A      4.041012   468A      4.065716  \n     469A      4.091590   470A      4.107287   471A      4.130190  \n     472A      4.152637   473A      4.164749   474A      4.189873  \n     475A      4.224676   476A      4.229946   477A      4.252980  \n     478A      4.312460   479A      4.318710   480A      4.330555  \n     481A      4.335428   482A      4.349011   483A      4.400928  \n     484A      4.415522   485A      4.430726   486A      4.440138  \n     487A      4.470790   488A      4.491441   489A      4.495292  \n     490A      4.511219   491A      4.524983   492A      4.537140  \n     493A      4.549696   494A      4.560736   495A      4.569288  \n     496A      4.593316   497A      4.608823   498A      4.612803  \n     499A      4.623975   500A      4.628559   501A      4.658228  \n     502A      4.668874   503A      4.703794   504A      4.705566  \n     505A      4.709757   506A      4.733935   507A      4.736877  \n     508A      4.745893   509A      4.768564   510A      4.774946  \n     511A      4.781624   512A      4.791077   513A      4.811962  \n     514A      4.846401   515A      4.870500   516A      4.884355  \n     517A      4.925116   518A      4.932507   519A      4.949914  \n     520A      4.956455   521A      4.987215   522A      4.996785  \n     523A      5.018513   524A      5.046957   525A      5.060789  \n     526A      5.075635   527A      5.094856   528A      5.134826  \n     529A      5.147548   530A      5.157067   531A      5.178345  \n     532A      5.209241   533A      5.224385   534A      5.243876  \n     535A      5.265776   536A      5.272831   537A      5.282698  \n     538A      5.315035   539A      5.329288   540A      5.331965  \n     541A      5.341303   542A      5.377404   543A      5.398242  \n     544A      5.407997   545A      5.429131   546A      5.459366  \n     547A      5.469827   548A      5.478596   549A      5.515679  \n     550A      5.532143   551A      5.543816   552A      5.569651  \n     553A      5.580100   554A      5.598285   555A      5.645941  \n     556A      5.655866   557A      5.667245   558A      5.689552  \n     559A      5.703017   560A      5.719231   561A      5.729378  \n     562A      5.747613   563A      5.768341   564A      5.781860  \n     565A      5.807394   566A      5.816601   567A      5.830923  \n     568A      5.837612   569A      5.844354   570A      5.867661  \n     571A      5.869225   572A      5.932314   573A      5.939943  \n     574A      5.958674   575A      5.972838   576A      5.979470  \n     577A      6.045725   578A      6.055389   579A      6.069414  \n     580A      6.103608   581A      6.119934   582A      6.143441  \n     583A      6.172285   584A      6.198099   585A      6.213178  \n     586A      6.237931   587A      6.239116   588A      6.326493  \n     589A      6.344834   590A      6.371030   591A      6.424220  \n     592A      6.477361   593A      6.523927   594A      6.575178  \n     595A      6.591713   596A      6.631957   597A      6.673251  \n     598A      6.710673   599A      6.736055   600A      6.753774  \n     601A      6.842963   602A      6.906762   603A      6.962044  \n     604A      7.008085   605A      7.045873   606A      7.085358  \n     607A      7.170399   608A      7.269947   609A      7.321231  \n     610A      7.394077   611A      7.638811   612A      7.652981  \n     613A      8.028028   614A      8.381646   615A      9.429437  \n     616A      9.909711   617A     11.583161   618A     12.345179  \n     619A     13.835667   620A     15.909422  \n\n    Final Occupation by Irrep:\n              A \n    DOCC [    39 ]\n\n  @DF-RKS Final Energy:  -541.70683715004816\n\n   => Energetics <=\n\n    Nuclear Repulsion Energy =            594.6969861901528702\n    One-Electron Energy =               -1916.1346275654891542\n    Two-Electron Energy =                 814.3459287500759274\n    DFT Exchange-Correlation Energy =     -34.6015919547878426\n    Empirical Dispersion Energy =          -0.0135325700000000\n    VV10 Nonlocal Energy =                  0.0000000000000000\n    Total Energy =                       -541.7068371500481589\n\nComputation Completed\n\n\nProperties will be evaluated at   0.000000,   0.000000,   0.000000 [a0]\n\nProperties computed using the SCF density matrix\n\n  Nuclear Dipole Moment: [e a0]\n     X:    -2.6175      Y:     4.4557      Z:     1.0936\n\n  Electronic Dipole Moment: [e a0]\n     X:     1.3464      Y:    -1.9766      Z:    -0.7715\n\n  Dipole Moment: [e a0]\n     X:    -1.2711      Y:     2.4791      Z:     0.3221     Total:     2.8045\n\n  Dipole Moment: [D]\n     X:    -3.2308      Y:     6.3012      Z:     0.8186     Total:     7.1284\n\n\n*** tstop() called on z069 at Mon May 17 18:34:49 2021\nModule time:\n\tuser time   =     471.55 seconds =       7.86 minutes\n\tsystem time =      23.23 seconds =       0.39 minutes\n\ttotal time  =         32 seconds =       0.53 minutes\nTotal time:\n\tuser time   =     471.55 seconds =       7.86 minutes\n\tsystem time =      23.23 seconds =       0.39 minutes\n\ttotal time  =         32 seconds =       0.53 minutes\n\n*** tstart() called on z069\n*** at Mon May 17 18:34:49 2021\n\n   => Loading Basis Set <=\n\n    Name: (AUG-PCSEG-2 AUX)\n    Role: RIFIT\n    Keyword: DF_BASIS_MP2\n    atoms 1, 3, 7, 9-10 entry N          line   278 file /group/f97/kraus/miniconda3/envs/psi4-1.4a2.dev923/share/psi4/basis/def2-tzvppd-ri.gbs \n    atoms 2, 4-5, 8, 11 entry C          line   223 file /group/f97/kraus/miniconda3/envs/psi4-1.4a2.dev923/share/psi4/basis/def2-tzvppd-ri.gbs \n    atoms 6             entry O          line   333 file /group/f97/kraus/miniconda3/envs/psi4-1.4a2.dev923/share/psi4/basis/def2-tzvppd-ri.gbs \n    atoms 12-16         entry H          line    22 file /group/f97/kraus/miniconda3/envs/psi4-1.4a2.dev923/share/psi4/basis/def2-tzvppd-ri.gbs \n\n\t --------------------------------------------------------\n\t                          DF-MP2                         \n\t      2nd-Order Density-Fitted Moller-Plesset Theory     \n\t              RMP2 Wavefunction,  24 Threads             \n\t                                                         \n\t        Rob Parrish, Justin Turney, Andy Simmonett,      \n\t           Ed Hohenstein, and C. David Sherrill          \n\t --------------------------------------------------------\n\n   => Auxiliary Basis Set <=\n\n  Basis Set: (AUG-PCSEG-2 AUX)\n    Blend: DEF2-TZVPPD-RI\n    Number of shells: 351\n    Number of basis function: 1207\n    Number of Cartesian functions: 1490\n    Spherical Harmonics?: true\n    Max angular momentum: 4\n\n\t --------------------------------------------------------\n\t                 NBF =   621, NAUX =  1207\n\t --------------------------------------------------------\n\t   CLASS    FOCC     OCC    AOCC    AVIR     VIR    FVIR\n\t   PAIRS      11      39      28     581     581       0\n\t --------------------------------------------------------\n\n\t-----------------------------------------------------------\n\t ==================> DF-MP2 Energies <==================== \n\t-----------------------------------------------------------\n\t Reference Energy          =    -541.7068371500481589 [Eh]\n\t Singles Energy            =      -0.0000000000000000 [Eh]\n\t Same-Spin Energy          =      -0.6604687985250630 [Eh]\n\t Opposite-Spin Energy      =      -1.7756095288488734 [Eh]\n\t Correlation Energy        =      -2.4360783273739361 [Eh]\n\t Total Energy              =    -544.1429154774220933 [Eh]\n\t-----------------------------------------------------------\n\t ================> DF-SCS-MP2 Energies <================== \n\t-----------------------------------------------------------\n\t SCS Same-Spin Scale       =       0.3333333333333333 [-]\n\t SCS Opposite-Spin Scale   =       1.2000000000000000 [-]\n\t SCS Same-Spin Energy      =      -0.2201562661750210 [Eh]\n\t SCS Opposite-Spin Energy  =      -2.1307314346186481 [Eh]\n\t SCS Correlation Energy    =      -2.3508877007936690 [Eh]\n\t SCS Total Energy          =    -544.0577248508418506 [Eh]\n\t-----------------------------------------------------------\n\n\n\n    B2PLYP-D3BJ Energy Summary\n    --------------------------\n    DFT Reference Energy                  =  -541.7068371500481589\n    Scaled MP2 Correlation                =    -0.6577411483909628\n    @Final double-hybrid DFT total energy =  -542.3645782984391417\n\n\n*** tstop() called on z069 at Mon May 17 18:34:56 2021\nModule time:\n\tuser time   =      80.16 seconds =       1.34 minutes\n\tsystem time =       3.59 seconds =       0.06 minutes\n\ttotal time  =          7 seconds =       0.12 minutes\nTotal time:\n\tuser time   =     551.73 seconds =       9.20 minutes\n\tsystem time =      26.82 seconds =       0.45 minutes\n\ttotal time  =         39 seconds =       0.65 minutes\n\n    Psi4 stopped on: Monday, 17 May 2021 06:34PM\n    Psi4 wall time for execution: 0:00:38.81\n\n*** Psi4 exiting successfully. Buy a developer a beer!\n",
 "stderr": null,
 "success": true,
 "error": null,
 "tag": "b2plyp-d3bj aug-pcseg-2 ggg_a"
}