{
 "id": null,
 "schema_name": "qcschema_output",
 "schema_version": 1,
 "molecule": {
  "validated": true,
  "symbols": [
   "N",
   "C",
   "N",
   "C",
   "C",
   "O",
   "N",
   "C",
   "N",
   "N",
   "C",
   "H",
   "H",
   "H",
   "H",
   "H"
  ],
  "geometry": [
   1.9795091944628955,
   2.1064834459358144,
   -3.2710258001379717,
   3.442157215567254,
   0.04479224306132246,
   -3.8587306251553546,
   3.037755824719278,
   -1.9205229274148177,
   -2.447105209438357,
   1.1329118902577873,
   -1.157073572729854,
   -0.8011537541645827,
   -0.012262141769655663,
   -2.415631172284768,
   1.2151840216989083,
   0.2787556815508495,
   -4.558580598553946,
   1.9767436502584184,
   -1.7942738780763892,
   -0.8301509530256518,
   2.4756313473792826,
   -2.3895376075956043,
   1.6208238316931525,
   1.8860367962364304,
   -4.060055502500323,
   2.879381431248068,
   3.327897829960767,
   -1.3464087863428829,
   2.818910195233415,
   -0.06605029136148675,
   0.4469413067165973,
   1.3279162822471884,
   -1.2830339161563362,
   1.9190379584482444,
   3.80723695884786,
   -4.140299817848581,
   -2.720239679550724,
   -1.6994249707362516,
   3.9722944387418746,
   4.817877834900553,
   0.1317196448323844,
   -5.370511525521616,
   -4.434221275340973,
   4.678400702683921,
   2.8233409544635233,
   -4.866968558070816,
   2.102703993684897,
   4.9095985969689675
  ],
  "name": "C5H5N5O",
  "molecular_charge": 0.0,
  "molecular_multiplicity": 1,
  "masses": [
   14.00307400443,
   12.0,
   14.00307400443,
   12.0,
   12.0,
   15.99491461957,
   14.00307400443,
   12.0,
   14.00307400443,
   14.00307400443,
   12.0,
   1.00782503223,
   1.00782503223,
   1.00782503223,
   1.00782503223,
   1.00782503223
  ],
  "real": [
   true,
   true,
   true,
   true,
   true,
   true,
   true,
   true,
   true,
   true,
   true,
   true,
   true,
   true,
   true,
   true
  ],
  "atom_labels": [
   "",
   "",
   "",
   "",
   "",
   "",
   "",
   "",
   "",
   "",
   "",
   "",
   "",
   "",
   "",
   ""
  ],
  "atomic_numbers": [
   7,
   6,
   7,
   6,
   6,
   8,
   7,
   6,
   7,
   7,
   6,
   1,
   1,
   1,
   1,
   1
  ],
  "mass_numbers": [
   14,
   12,
   14,
   12,
   12,
   16,
   14,
   12,
   14,
   14,
   12,
   1,
   1,
   1,
   1,
   1
  ],
  "fragments": [
   [
    0,
    1,
    2,
    3,
    4,
    5,
    6,
    7,
    8,
    9,
    10,
    11,
    12,
    13,
    14,
    15
   ]
  ],
  "fragment_charges": [
   0.0
  ],
  "fragment_multiplicities": [
   1
  ],
  "fix_com": false,
  "fix_orientation": false,
  "provenance": {
   "creator": "QCElemental",
   "version": "v0.19.0",
   "routine": "qcelemental.molparse.from_string"
  }
 },
 "driver": "energy",
 "model": {
  "method": "m062x-d3",
  "basis": "def2-tzvpd"
 },
 "keywords": {},
 "protocols": {},
 "extras": {
  "qcvars": {
   "2-BODY DISPERSION CORRECTION ENERGY": -0.00040129,
   "CURRENT DIPOLE X": -3.1488832145116663,
   "CURRENT DIPOLE Y": 6.109423318242397,
   "CURRENT DIPOLE Z": 0.8180268712664335,
   "CURRENT ENERGY": -542.5647518276668,
   "CURRENT REFERENCE ENERGY": -542.5647518276668,
   "DFT FUNCTIONAL TOTAL ENERGY": -542.5643505376668,
   "DFT TOTAL ENERGY": -542.5647518276668,
   "DFT VV10 ENERGY": 0.0,
   "DFT XC ENERGY": -34.76871316238158,
   "DISPERSION CORRECTION ENERGY": -0.00040129,
   "M06-2X-D3 DISPERSION CORRECTION ENERGY": -0.00040129,
   "NUCLEAR REPULSION ENERGY": 594.6969861901529,
   "ONE-ELECTRON ENERGY": -1916.1304788615187,
   "PCM POLARIZATION ENERGY": 0.0,
   "PE ENERGY": 0.0,
   "SCF DIPOLE X": -3.1488832145116663,
   "SCF DIPOLE Y": 6.109423318242397,
   "SCF DIPOLE Z": 0.8180268712664335,
   "SCF ITERATION ENERGY": -542.5647518276668,
   "SCF ITERATIONS": 9.0,
   "SCF TOTAL ENERGY": -542.5647518276668,
   "TWO-ELECTRON ENERGY": 813.6378552960807,
   "XC GRID RADIAL POINTS": 75.0,
   "XC GRID SPHERICAL POINTS": 302.0,
   "XC GRID TOTAL POINTS": 338285.0,
   "CURRENT DIPOLE": [
    -1.2388659821533272,
    2.4036320828489606,
    0.321836535133764
   ],
   "SCF DIPOLE": [
    -1.2388659821533272,
    2.4036320828489606,
    0.321836535133764
   ]
  }
 },
 "provenance": {
  "creator": "Psi4",
  "version": "1.4a2.dev923",
  "routine": "psi4.schema_runner.run_qcschema",
  "cpu": "AMD EPYC Processor (with IBPB)",
  "username": "ubuntu",
  "hostname": "bignimbus",
  "qcengine_version": "v0.17.0",
  "nthreads": 16,
  "memory": 256.0,
  "wall_time": 31.77718496322632
 },
 "properties": {
  "calcinfo_nbasis": 455,
  "calcinfo_nmo": 455,
  "calcinfo_nalpha": 39,
  "calcinfo_nbeta": 39,
  "calcinfo_natom": 16,
  "nuclear_repulsion_energy": 594.6969861901529,
  "return_energy": -542.5647518276668,
  "scf_one_electron_energy": -1916.1304788615187,
  "scf_two_electron_energy": 813.6378552960807,
  "scf_xc_energy": -34.76871316238158,
  "scf_dispersion_correction_energy": -0.00040129,
  "scf_dipole_moment": [
   -1.2388659821533272,
   2.4036320828489606,
   0.321836535133764
  ],
  "scf_total_energy": -542.5647518276668,
  "scf_iterations": 9
 },
 "wavefunction": null,
 "return_result": -542.5647518276668,
 "stdout": "\n    -----------------------------------------------------------------------\n          Psi4: An Open-Source Ab Initio Electronic Structure Package\n                               Psi4 1.4a2.dev923 \n\n                         Git: Rev {master} 5de566e \n\n\n    D. G. A. Smith, L. A. Burns, A. C. Simmonett, R. M. Parrish,\n    M. C. Schieber, R. Galvelis, P. Kraus, H. Kruse, R. Di Remigio,\n    A. Alenaizan, A. M. James, S. Lehtola, J. P. Misiewicz, M. Scheurer,\n    R. A. Shaw, J. B. Schriber, Y. Xie, Z. L. Glick, D. A. Sirianni,\n    J. S. O'Brien, J. M. Waldrop, A. Kumar, E. G. Hohenstein,\n    B. P. Pritchard, B. R. Brooks, H. F. Schaefer III, A. Yu. Sokolov,\n    K. Patkowski, A. E. DePrince III, U. Bozkaya, R. A. King,\n    F. A. Evangelista, J. M. Turney, T. D. Crawford, C. D. Sherrill,\n    J. Chem. Phys. 152(18) 184108 (2020). https://doi.org/10.1063/5.0006002\n\n                            Additional Code Authors\n    E. T. Seidl, C. L. Janssen, E. F. Valeev, M. L. Leininger,\n    J. F. Gonthier, R. M. Richard, H. R. McAlexander, M. Saitow, X. Wang,\n    P. Verma, and M. H. Lechner\n\n             Previous Authors, Complete List of Code Contributors,\n                       and Citations for Specific Modules\n    https://github.com/psi4/psi4/blob/master/codemeta.json\n    https://github.com/psi4/psi4/graphs/contributors\n    http://psicode.org/psi4manual/master/introduction.html#citing-psifour\n\n    -----------------------------------------------------------------------\n\n\n    Psi4 started on: Saturday, 24 April 2021 03:58PM\n\n    Process ID: 3832037\n    Host:       bignimbus\n    PSIDATADIR: /home/ubuntu/pk/Applications/miniconda3/envs/psi4-1.4a2.dev923/share/psi4\n    Memory:     238.4 GiB\n    Threads:    16\n    \n  ==> Input QCSchema <==\n\n--------------------------------------------------------------------------\n{'driver': 'energy',\n 'extras': {},\n 'id': None,\n 'keywords': {},\n 'model': {'basis': 'def2-tzvpd', 'method': 'm062x-d3'},\n 'molecule': {'atom_labels': ['', '', '', '', '', '', '', '', '', '', '', '', '', '', '', ''],\n              'atomic_numbers': [7, 6, 7, 6, 6, 8, 7, 6, 7, 7, 6, 1, 1, 1, 1, 1],\n              'fix_com': False,\n              'fix_orientation': False,\n              'fragment_charges': [0.0],\n              'fragment_multiplicities': [1],\n              'fragments': [[0, 1, 2, 3, 4, 5, 6, 7, 8, 9, 10, 11, 12, 13, 14, 15]],\n              'geometry': [1.9795091944628904, 2.10648344593581, -3.2710258001380055, 3.4421572155672493,\n                           0.044792243061317905, -3.8587306251553883, 3.037755824719273, -1.9205229274148223,\n                           -2.4471052094383907, 1.1329118902577822, -1.1570735727298587, -0.8011537541646163,\n                           -0.012262141769660673, -2.4156311722847725, 1.2151840216988745, 0.2787556815508445,\n                           -4.5585805985539505, 1.9767436502583846, -1.7942738780763943, -0.8301509530256563,\n                           2.475631347379249, -2.389537607595609, 1.6208238316931478, 1.8860367962363966,\n                           -4.060055502500329, 2.8793814312480634, 3.327897829960733, -1.346408786342888,\n                           2.8189101952334106, -0.06605029136152041, 0.4469413067165923, 1.3279162822471837,\n                           -1.28303391615637, 1.9190379584482393, 3.8072369588478554, -4.140299817848614,\n                           -2.720239679550729, -1.6994249707362563, 3.972294438741841, 4.817877834900548,\n                           0.13171964483237986, -5.37051152552165, -4.434221275340978, 4.678400702683916,\n                           2.8233409544634895, -4.8669685580708215, 2.1027039936848926, 4.909598596968934],\n              'mass_numbers': [14, 12, 14, 12, 12, 16, 14, 12, 14, 14, 12, 1, 1, 1, 1, 1],\n              'masses': [14.00307400443, 12.0, 14.00307400443, 12.0, 12.0, 15.99491461957, 14.00307400443, 12.0,\n                         14.00307400443, 14.00307400443, 12.0, 1.00782503223, 1.00782503223, 1.00782503223,\n                         1.00782503223, 1.00782503223],\n              'molecular_charge': 0.0,\n              'molecular_multiplicity': 1,\n              'name': 'C5H5N5O',\n              'provenance': {'creator': 'QCElemental',\n                             'routine': 'qcelemental.molparse.from_string',\n                             'version': 'v0.19.0'},\n              'real': [True, True, True, True, True, True, True, True, True, True, True, True, True, True, True, True],\n              'symbols': ['N', 'C', 'N', 'C', 'C', 'O', 'N', 'C', 'N', 'N', 'C', 'H', 'H', 'H', 'H', 'H'],\n              'validated': True},\n 'protocols': {},\n 'provenance': {'creator': 'QCElemental', 'routine': 'qcelemental.models.results', 'version': 'v0.17.0'},\n 'schema_name': 'qcschema_input',\n 'schema_version': 1}\n--------------------------------------------------------------------------\n\nScratch directory: /home/ubuntu/pk/scratch/tmpu5hg9zp7_psi_scratch/\n\n*** tstart() called on bignimbus\n*** at Sat Apr 24 15:58:48 2021\n\n   => Loading Basis Set <=\n\n    Name: DEF2-TZVPD\n    Role: ORBITAL\n    Keyword: BASIS\n    atoms 1, 3, 7, 9-10 entry N          line   171 file /home/ubuntu/pk/Applications/miniconda3/envs/psi4-1.4a2.dev923/share/psi4/basis/def2-tzvpd.gbs \n    atoms 2, 4-5, 8, 11 entry C          line   134 file /home/ubuntu/pk/Applications/miniconda3/envs/psi4-1.4a2.dev923/share/psi4/basis/def2-tzvpd.gbs \n    atoms 6             entry O          line   208 file /home/ubuntu/pk/Applications/miniconda3/envs/psi4-1.4a2.dev923/share/psi4/basis/def2-tzvpd.gbs \n    atoms 12-16         entry H          line    14 file /home/ubuntu/pk/Applications/miniconda3/envs/psi4-1.4a2.dev923/share/psi4/basis/def2-tzvpd.gbs \n\n   => M06-2X-D3: Empirical Dispersion <=\n\n    Grimme's -D3 (zero-damping) Dispersion Correction\n    Grimme S.; Antony J.; Ehrlich S.; Krieg H. (2010), J. Chem. Phys., 132: 154104\n    Parametrisation from:    L. Goerigk, S. Grimme, Phys. Chem. Chem. Phys. 13, 6670-6688, 2011\n\n        s6 =       1.000000\n        s8 =       0.000000\n       sr6 =       1.619000\n    alpha6 =      14.000000\n       sr8 =       1.000000\n\n\n         ---------------------------------------------------------\n                                   SCF\n               by Justin Turney, Rob Parrish, Andy Simmonett\n                          and Daniel G. A. Smith\n                              RKS Reference\n                       16 Threads, 244140 MiB Core\n         ---------------------------------------------------------\n\n  ==> Geometry <==\n\n    Molecular point group: c1\n    Full point group: C1\n\n    Geometry (in Bohr), charge = 0, multiplicity = 1:\n\n       Center              X                  Y                   Z               Mass       \n    ------------   -----------------  -----------------  -----------------  -----------------\n         N            1.979509194463     2.106483445936    -3.271025800138    14.003074004430\n         C            3.442157215567     0.044792243061    -3.858730625155    12.000000000000\n         N            3.037755824719    -1.920522927415    -2.447105209438    14.003074004430\n         C            1.132911890258    -1.157073572730    -0.801153754165    12.000000000000\n         C           -0.012262141770    -2.415631172285     1.215184021699    12.000000000000\n         O            0.278755681551    -4.558580598554     1.976743650258    15.994914619570\n         N           -1.794273878076    -0.830150953026     2.475631347379    14.003074004430\n         C           -2.389537607596     1.620823831693     1.886036796236    12.000000000000\n         N           -4.060055502500     2.879381431248     3.327897829961    14.003074004430\n         N           -1.346408786343     2.818910195233    -0.066050291361    14.003074004430\n         C            0.446941306717     1.327916282247    -1.283033916156    12.000000000000\n         H            1.919037958448     3.807236958848    -4.140299817849     1.007825032230\n         H           -2.720239679551    -1.699424970736     3.972294438742     1.007825032230\n         H            4.817877834901     0.131719644832    -5.370511525522     1.007825032230\n         H           -4.434221275341     4.678400702684     2.823340954464     1.007825032230\n         H           -4.866968558071     2.102703993685     4.909598596969     1.007825032230\n\n  Running in c1 symmetry.\n\n  Rotational constants: A =      0.06486  B =      0.03693  C =      0.02354 [cm^-1]\n  Rotational constants: A =   1944.44089  B =   1107.15421  C =    705.76789 [MHz]\n  Nuclear repulsion =  594.696986190152870\n\n  Charge       = 0\n  Multiplicity = 1\n  Electrons    = 78\n  Nalpha       = 39\n  Nbeta        = 39\n\n  ==> Algorithm <==\n\n  SCF Algorithm Type is DF.\n  DIIS enabled.\n  MOM disabled.\n  Fractional occupation disabled.\n  Guess Type is SAD.\n  Energy threshold   = 1.00e-06\n  Density threshold  = 1.00e-06\n  Integral threshold = 0.00e+00\n\n  ==> Primary Basis <==\n\n  Basis Set: DEF2-TZVPD\n    Blend: DEF2-TZVPD\n    Number of shells: 169\n    Number of basis function: 455\n    Number of Cartesian functions: 521\n    Spherical Harmonics?: true\n    Max angular momentum: 3\n\n  ==> DFT Potential <==\n\n   => Composite Functional: M06-2X-D3ZERO <= \n\n    Hybrid M06-2X Meta-GGA XC Functional\n\n    Y. Zhao and D. G. Truhlar,  Theor. Chem. Acc., 120, 215, 2008\n\n\n    Deriv               =              1\n    GGA                 =           TRUE\n    Meta                =           TRUE\n\n    Exchange Hybrid     =           TRUE\n    MP2 Hybrid          =          FALSE\n\n   => Exchange Functionals <=\n\n    1.0000   XC_HYB_MGGA_X_M06_2X\n\n   => Exact (HF) Exchange <=\n\n    0.5400               HF \n\n   => Correlation Functionals <=\n\n    1.0000   XC_MGGA_C_M06_2X\n\n   => LibXC Density Thresholds  <==\n\n    XC_MGGA_C_M06_2X:  1.00E-23 \n    XC_HYB_MGGA_X_M06_2X:  1.00E-20 \n\n   => Molecular Quadrature <=\n\n    Radial Scheme          =       TREUTLER\n    Pruning Scheme         =           NONE\n    Nuclear Scheme         =       TREUTLER\n\n    BS radius alpha        =              1\n    Pruning alpha          =              1\n    Radial Points          =             75\n    Spherical Points       =            302\n    Total Points           =         338285\n    Total Blocks           =           2516\n    Max Points             =            256\n    Max Functions          =            422\n    Weights Tolerance      =       1.00E-15\n\n   => Loading Basis Set <=\n\n    Name: (DEF2-TZVPD AUX)\n    Role: JKFIT\n    Keyword: DF_BASIS_SCF\n    atoms 1, 3, 7, 9-10 entry N          line   258 file /home/ubuntu/pk/Applications/miniconda3/envs/psi4-1.4a2.dev923/share/psi4/basis/def2-universal-jkfit.gbs \n    atoms 2, 4-5, 8, 11 entry C          line   198 file /home/ubuntu/pk/Applications/miniconda3/envs/psi4-1.4a2.dev923/share/psi4/basis/def2-universal-jkfit.gbs \n    atoms 6             entry O          line   318 file /home/ubuntu/pk/Applications/miniconda3/envs/psi4-1.4a2.dev923/share/psi4/basis/def2-universal-jkfit.gbs \n    atoms 12-16         entry H          line    18 file /home/ubuntu/pk/Applications/miniconda3/envs/psi4-1.4a2.dev923/share/psi4/basis/def2-universal-jkfit.gbs \n\n  ==> Integral Setup <==\n\n  DFHelper Memory: AOs need 1.411 GiB; user supplied 171.091 GiB. Using in-core AOs.\n\n  ==> MemDFJK: Density-Fitted J/K Matrices <==\n\n    J tasked:                   Yes\n    K tasked:                   Yes\n    wK tasked:                   No\n    OpenMP threads:              16\n    Memory [MiB]:            175197\n    Algorithm:                 Core\n    Schwarz Cutoff:           1E-12\n    Mask sparsity (%):       6.3712\n    Fitting Condition:        1E-10\n\n   => Auxiliary Basis Set <=\n\n  Basis Set: (DEF2-TZVPD AUX)\n    Blend: DEF2-UNIVERSAL-JKFIT\n    Number of shells: 305\n    Number of basis function: 927\n    Number of Cartesian functions: 1103\n    Spherical Harmonics?: true\n    Max angular momentum: 4\n\n  Cached 100.0% of DFT collocation blocks in 7.723 [GiB].\n\n  Minimum eigenvalue in the overlap matrix is 1.0190272103E-06.\n  Reciprocal condition number of the overlap matrix is 6.3792455086E-08.\n    Using symmetric orthogonalization.\n\n  ==> Pre-Iterations <==\n\n  SCF Guess: Superposition of Atomic Densities via on-the-fly atomic UHF (no occupation information).\n\n   -------------------------\n    Irrep   Nso     Nmo    \n   -------------------------\n     A        455     455 \n   -------------------------\n    Total     455     455\n   -------------------------\n\n  ==> Iterations <==\n\n                           Total Energy        Delta E     RMS |[F,P]|\n\n   @DF-RKS iter SAD:  -542.66263067801481   -5.42663e+02   0.00000e+00 \n   @DF-RKS iter   1:  -542.11878545944796    5.43845e-01   2.25970e-03 DIIS\n   @DF-RKS iter   2:  -542.13728994100973   -1.85045e-02   2.27879e-03 DIIS\n   @DF-RKS iter   3:  -542.54616220780122   -4.08872e-01   4.72189e-04 DIIS\n   @DF-RKS iter   4:  -542.56305765313118   -1.68954e-02   1.39155e-04 DIIS\n   @DF-RKS iter   5:  -542.56462019577509   -1.56254e-03   3.63456e-05 DIIS\n   @DF-RKS iter   6:  -542.56473106536987   -1.10870e-04   1.36711e-05 DIIS\n   @DF-RKS iter   7:  -542.56474888984042   -1.78245e-05   4.69665e-06 DIIS\n   @DF-RKS iter   8:  -542.56475131096988   -2.42113e-06   1.84833e-06 DIIS\n   @DF-RKS iter   9:  -542.56475182766678   -5.16697e-07   6.44315e-07 DIIS\n  Energy and wave function converged.\n\n\n  ==> Post-Iterations <==\n\n    Orbital Energies [Eh]\n    ---------------------\n\n    Doubly Occupied:                                                      \n\n       1A    -19.591527     2A    -14.814783     3A    -14.811407  \n       4A    -14.800368     5A    -14.754692     6A    -14.744560  \n       7A    -10.686131     8A    -10.650584     9A    -10.625561  \n      10A    -10.608782    11A    -10.558781    12A     -1.174308  \n      13A     -1.142021    14A     -1.124927    15A     -1.029072  \n      16A     -1.007719    17A     -0.981733    18A     -0.865261  \n      19A     -0.765449    20A     -0.749180    21A     -0.709375  \n      22A     -0.685086    23A     -0.629876    24A     -0.623795  \n      25A     -0.600712    26A     -0.569454    27A     -0.562978  \n      28A     -0.525332    29A     -0.513303    30A     -0.500716  \n      31A     -0.497890    32A     -0.474362    33A     -0.395854  \n      34A     -0.382615    35A     -0.358563    36A     -0.349333  \n      37A     -0.346478    38A     -0.338261    39A     -0.265989  \n\n    Virtual:                                                              \n\n      40A     -0.005927    41A      0.013011    42A      0.017793  \n      43A      0.028183    44A      0.033105    45A      0.040087  \n      46A      0.050932    47A      0.066288    48A      0.070955  \n      49A      0.075087    50A      0.081585    51A      0.088084  \n      52A      0.103846    53A      0.112915    54A      0.122043  \n      55A      0.125678    56A      0.127595    57A      0.137283  \n      58A      0.151606    59A      0.158958    60A      0.171874  \n      61A      0.173374    62A      0.180871    63A      0.186852  \n      64A      0.188109    65A      0.193208    66A      0.206162  \n      67A      0.213030    68A      0.214774    69A      0.217719  \n      70A      0.224498    71A      0.227798    72A      0.231019  \n      73A      0.238893    74A      0.246934    75A      0.250960  \n      76A      0.256047    77A      0.257989    78A      0.261829  \n      79A      0.267362    80A      0.275459    81A      0.283674  \n      82A      0.286523    83A      0.294258    84A      0.302926  \n      85A      0.305075    86A      0.306443    87A      0.308995  \n      88A      0.327564    89A      0.331913    90A      0.336882  \n      91A      0.342438    92A      0.351941    93A      0.355292  \n      94A      0.359001    95A      0.367242    96A      0.380142  \n      97A      0.386572    98A      0.389923    99A      0.392512  \n     100A      0.402286   101A      0.407925   102A      0.415354  \n     103A      0.422101   104A      0.431158   105A      0.433034  \n     106A      0.444155   107A      0.448742   108A      0.457372  \n     109A      0.461292   110A      0.474370   111A      0.475904  \n     112A      0.485796   113A      0.491400   114A      0.492374  \n     115A      0.495621   116A      0.504141   117A      0.511855  \n     118A      0.512651   119A      0.515102   120A      0.524045  \n     121A      0.531388   122A      0.538125   123A      0.547912  \n     124A      0.551574   125A      0.556310   126A      0.571269  \n     127A      0.575344   128A      0.578382   129A      0.583590  \n     130A      0.600038   131A      0.603385   132A      0.604850  \n     133A      0.606991   134A      0.616554   135A      0.627430  \n     136A      0.632013   137A      0.640438   138A      0.647958  \n     139A      0.653264   140A      0.657368   141A      0.660826  \n     142A      0.670616   143A      0.674658   144A      0.678345  \n     145A      0.688045   146A      0.694519   147A      0.700122  \n     148A      0.704552   149A      0.714285   150A      0.721860  \n     151A      0.729535   152A      0.743700   153A      0.754008  \n     154A      0.761331   155A      0.764752   156A      0.769230  \n     157A      0.780646   158A      0.788921   159A      0.794107  \n     160A      0.801713   161A      0.807341   162A      0.817868  \n     163A      0.822373   164A      0.834678   165A      0.854269  \n     166A      0.857604   167A      0.864405   168A      0.871428  \n     169A      0.885736   170A      0.897361   171A      0.914037  \n     172A      0.915431   173A      0.932070   174A      0.940453  \n     175A      0.954926   176A      0.963641   177A      0.973543  \n     178A      0.984462   179A      0.990744   180A      0.997089  \n     181A      1.005336   182A      1.006968   183A      1.027624  \n     184A      1.032778   185A      1.043297   186A      1.059186  \n     187A      1.076341   188A      1.077998   189A      1.102738  \n     190A      1.114987   191A      1.121478   192A      1.124756  \n     193A      1.133103   194A      1.148223   195A      1.152610  \n     196A      1.157278   197A      1.161734   198A      1.169452  \n     199A      1.183623   200A      1.193820   201A      1.224595  \n     202A      1.254548   203A      1.283881   204A      1.320406  \n     205A      1.332026   206A      1.339134   207A      1.343562  \n     208A      1.373979   209A      1.381015   210A      1.400867  \n     211A      1.420524   212A      1.432622   213A      1.448596  \n     214A      1.454457   215A      1.480068   216A      1.527849  \n     217A      1.530794   218A      1.563507   219A      1.571063  \n     220A      1.586456   221A      1.614040   222A      1.619076  \n     223A      1.643190   224A      1.655337   225A      1.660836  \n     226A      1.672917   227A      1.688321   228A      1.735391  \n     229A      1.768242   230A      1.776819   231A      1.782526  \n     232A      1.789087   233A      1.816634   234A      1.818953  \n     235A      1.837085   236A      1.849860   237A      1.867012  \n     238A      1.874283   239A      1.888316   240A      1.900473  \n     241A      1.919582   242A      1.931175   243A      1.932109  \n     244A      1.934092   245A      1.952751   246A      1.954381  \n     247A      1.990208   248A      2.020213   249A      2.027588  \n     250A      2.057274   251A      2.061569   252A      2.086338  \n     253A      2.108832   254A      2.151652   255A      2.178842  \n     256A      2.184368   257A      2.188086   258A      2.203367  \n     259A      2.224539   260A      2.245329   261A      2.280309  \n     262A      2.282062   263A      2.291479   264A      2.313799  \n     265A      2.331195   266A      2.350765   267A      2.359445  \n     268A      2.382636   269A      2.403450   270A      2.424548  \n     271A      2.436461   272A      2.463403   273A      2.475329  \n     274A      2.478844   275A      2.503468   276A      2.528597  \n     277A      2.542727   278A      2.557886   279A      2.566541  \n     280A      2.611960   281A      2.622069   282A      2.631540  \n     283A      2.649731   284A      2.670953   285A      2.696695  \n     286A      2.702406   287A      2.760732   288A      2.773538  \n     289A      2.779393   290A      2.804194   291A      2.814695  \n     292A      2.852632   293A      2.876846   294A      2.921572  \n     295A      2.960454   296A      2.971682   297A      2.981410  \n     298A      2.983483   299A      3.003969   300A      3.013295  \n     301A      3.034900   302A      3.049183   303A      3.059494  \n     304A      3.063598   305A      3.068367   306A      3.080294  \n     307A      3.093439   308A      3.100243   309A      3.126309  \n     310A      3.136562   311A      3.152530   312A      3.170069  \n     313A      3.189274   314A      3.197837   315A      3.210951  \n     316A      3.223243   317A      3.245798   318A      3.261787  \n     319A      3.265509   320A      3.274725   321A      3.302841  \n     322A      3.310041   323A      3.328114   324A      3.342809  \n     325A      3.350234   326A      3.376312   327A      3.384940  \n     328A      3.390102   329A      3.412080   330A      3.423980  \n     331A      3.445863   332A      3.455310   333A      3.469812  \n     334A      3.506424   335A      3.513992   336A      3.535667  \n     337A      3.544802   338A      3.564221   339A      3.569218  \n     340A      3.593398   341A      3.613691   342A      3.641639  \n     343A      3.659431   344A      3.663754   345A      3.707229  \n     346A      3.746701   347A      3.786023   348A      3.807136  \n     349A      3.820861   350A      3.889444   351A      3.927612  \n     352A      3.940193   353A      3.985912   354A      4.011704  \n     355A      4.023441   356A      4.053779   357A      4.079068  \n     358A      4.099160   359A      4.121255   360A      4.138185  \n     361A      4.185921   362A      4.218068   363A      4.220085  \n     364A      4.255776   365A      4.272003   366A      4.310610  \n     367A      4.323673   368A      4.360758   369A      4.375427  \n     370A      4.413306   371A      4.499296   372A      4.541692  \n     373A      4.593218   374A      4.618311   375A      4.645061  \n     376A      4.673117   377A      4.723430   378A      4.731736  \n     379A      4.755658   380A      4.767930   381A      4.780099  \n     382A      4.796832   383A      4.804175   384A      4.862403  \n     385A      4.866196   386A      4.905539   387A      4.929051  \n     388A      4.947972   389A      4.964992   390A      4.987884  \n     391A      5.010372   392A      5.031214   393A      5.039520  \n     394A      5.046587   395A      5.079181   396A      5.101086  \n     397A      5.103269   398A      5.118735   399A      5.132338  \n     400A      5.174461   401A      5.178073   402A      5.203559  \n     403A      5.206577   404A      5.223939   405A      5.262734  \n     406A      5.275719   407A      5.318535   408A      5.333857  \n     409A      5.346316   410A      5.367241   411A      5.379841  \n     412A      5.406947   413A      5.423932   414A      5.439023  \n     415A      5.450285   416A      5.484734   417A      5.513326  \n     418A      5.527652   419A      5.546764   420A      5.573573  \n     421A      5.616974   422A      5.643514   423A      5.660949  \n     424A      5.676789   425A      5.707866   426A      5.743762  \n     427A      5.746609   428A      5.804274   429A      5.894660  \n     430A      5.944899   431A      6.007731   432A      6.046469  \n     433A      6.104673   434A      6.191567   435A      6.229633  \n     436A      6.261098   437A      6.357644   438A      6.546290  \n     439A      6.554121   440A      6.755474   441A      6.909897  \n     442A      6.960168   443A      7.209452   444A      7.304304  \n     445A     23.047387   446A     23.280536   447A     23.452772  \n     448A     23.538415   449A     23.795933   450A     32.482646  \n     451A     32.700461   452A     32.792215   453A     32.870082  \n     454A     33.120232   455A     44.566967  \n\n    Final Occupation by Irrep:\n              A \n    DOCC [    39 ]\n\n  @DF-RKS Final Energy:  -542.56475182766678\n\n   => Energetics <=\n\n    Nuclear Repulsion Energy =            594.6969861901528702\n    One-Electron Energy =               -1916.1304788615186681\n    Two-Electron Energy =                 813.6378552960807156\n    DFT Exchange-Correlation Energy =     -34.7687131623815802\n    Empirical Dispersion Energy =          -0.0004012900000000\n    VV10 Nonlocal Energy =                  0.0000000000000000\n    Total Energy =                       -542.5647518276667824\n\nComputation Completed\n\n\nProperties will be evaluated at   0.000000,   0.000000,   0.000000 [a0]\n\nProperties computed using the SCF density matrix\n\n  Nuclear Dipole Moment: [e a0]\n     X:    -2.6175      Y:     4.4557      Z:     1.0936\n\n  Electronic Dipole Moment: [e a0]\n     X:     1.3787      Y:    -2.0520      Z:    -0.7718\n\n  Dipole Moment: [e a0]\n     X:    -1.2389      Y:     2.4036      Z:     0.3218     Total:     2.7232\n\n  Dipole Moment: [D]\n     X:    -3.1489      Y:     6.1094      Z:     0.8180     Total:     6.9217\n\n\n*** tstop() called on bignimbus at Sat Apr 24 15:59:15 2021\nModule time:\n\tuser time   =     332.07 seconds =       5.53 minutes\n\tsystem time =      15.49 seconds =       0.26 minutes\n\ttotal time  =         27 seconds =       0.45 minutes\nTotal time:\n\tuser time   =     332.07 seconds =       5.53 minutes\n\tsystem time =      15.49 seconds =       0.26 minutes\n\ttotal time  =         27 seconds =       0.45 minutes\n\n    Psi4 stopped on: Saturday, 24 April 2021 03:59PM\n    Psi4 wall time for execution: 0:00:26.63\n\n*** Psi4 exiting successfully. Buy a developer a beer!\n",
 "stderr": null,
 "success": true,
 "error": null,
 "tag": "m062x-d3 def2-tzvpd ggg_a"
}