{
 "id": null,
 "schema_name": "qcschema_output",
 "schema_version": 1,
 "molecule": {
  "validated": true,
  "symbols": [
   "C",
   "C",
   "C",
   "C",
   "C",
   "N",
   "N",
   "N",
   "N",
   "N",
   "H",
   "H",
   "H",
   "H",
   "H"
  ],
  "geometry": [
   -2.6005148446510584,
   0.05786205884492528,
   -0.05834799091184591,
   -0.1816654040650379,
   -1.05140717679882,
   0.03991776761196013,
   1.8611285375548743,
   0.6342285271095628,
   0.08527119462294801,
   -0.6465380309276636,
   3.967705412417172,
   0.03235886311012896,
   3.108347780357041,
   -3.3625422282337434,
   0.004012971228262096,
   -2.7857080049459246,
   2.5976539714602467,
   -0.05267881253547342,
   1.7553038745292358,
   3.1645718090975947,
   0.09849927750115343,
   0.6309168298818281,
   -3.543955936277695,
   -0.011104837775400235,
   3.9719526196912684,
   -0.9002290867621937,
   0.08716092074840669,
   -4.769920436676645,
   -1.3273071911156629,
   -0.11126032242466495,
   -0.9092099623663019,
   6.004830175660711,
   0.019130780231924428,
   4.406589628546569,
   -4.938573816865572,
   -0.07157607379005133,
   5.787979426256241,
   -0.31630371399572466,
   -0.04700963415909916,
   -6.351621203684847,
   -0.38811330676312217,
   -0.6366041853019416,
   -4.6414190601455125,
   -3.160341532809756,
   -0.6403836375528572
  ],
  "name": "C5H5N5",
  "molecular_charge": 0.0,
  "molecular_multiplicity": 1,
  "masses": [
   12.0,
   12.0,
   12.0,
   12.0,
   12.0,
   14.00307400443,
   14.00307400443,
   14.00307400443,
   14.00307400443,
   14.00307400443,
   1.00782503223,
   1.00782503223,
   1.00782503223,
   1.00782503223,
   1.00782503223
  ],
  "real": [
   true,
   true,
   true,
   true,
   true,
   true,
   true,
   true,
   true,
   true,
   true,
   true,
   true,
   true,
   true
  ],
  "atom_labels": [
   "",
   "",
   "",
   "",
   "",
   "",
   "",
   "",
   "",
   "",
   "",
   "",
   "",
   "",
   ""
  ],
  "atomic_numbers": [
   6,
   6,
   6,
   6,
   6,
   7,
   7,
   7,
   7,
   7,
   1,
   1,
   1,
   1,
   1
  ],
  "mass_numbers": [
   12,
   12,
   12,
   12,
   12,
   14,
   14,
   14,
   14,
   14,
   1,
   1,
   1,
   1,
   1
  ],
  "fragments": [
   [
    0,
    1,
    2,
    3,
    4,
    5,
    6,
    7,
    8,
    9,
    10,
    11,
    12,
    13,
    14
   ]
  ],
  "fragment_charges": [
   0.0
  ],
  "fragment_multiplicities": [
   1
  ],
  "fix_com": false,
  "fix_orientation": false,
  "provenance": {
   "creator": "QCElemental",
   "version": "v0.19.0",
   "routine": "qcelemental.molparse.from_string"
  }
 },
 "driver": "energy",
 "model": {
  "method": "dsd-blyp-d3bj",
  "basis": "pcseg-2"
 },
 "keywords": {},
 "protocols": {},
 "extras": {
  "qcvars": {
   "2-BODY DISPERSION CORRECTION ENERGY": -0.0159969,
   "CURRENT DIPOLE X": 1.7371163551673243,
   "CURRENT DIPOLE Y": -1.8544704327803712,
   "CURRENT DIPOLE Z": -0.9811225489208859,
   "CURRENT ENERGY": -466.97422298547554,
   "CURRENT REFERENCE ENERGY": -466.05385283237985,
   "DFT FUNCTIONAL TOTAL ENERGY": -466.0378559323799,
   "DFT TOTAL ENERGY": -466.97422298547554,
   "DFT VV10 ENERGY": 0.0,
   "DFT XC ENERGY": -19.013367192016716,
   "DISPERSION CORRECTION ENERGY": -0.0159969,
   "DOUBLE-HYBRID CORRECTION ENERGY": -0.920370153095677,
   "DSD-BLYP-D3BJ DISPERSION CORRECTION ENERGY": -0.0159969,
   "DSD-BLYP-D3BJ DOUBLE-HYBRID CORRECTION ENERGY": -0.920370153095677,
   "DSD-BLYP-D3BJ TOTAL ENERGY": -466.97422298547554,
   "NUCLEAR REPULSION ENERGY": 501.2235939031376,
   "ONE-ELECTRON ENERGY": -1625.9712242957294,
   "PCM POLARIZATION ENERGY": 0.0,
   "PE ENERGY": 0.0,
   "SCF DIPOLE X": 1.7371163551673243,
   "SCF DIPOLE Y": -1.8544704327803712,
   "SCF DIPOLE Z": -0.9811225489208859,
   "SCF ITERATION ENERGY": -466.05385283237985,
   "SCF ITERATIONS": 9.0,
   "SCF TOTAL ENERGY": -466.05385283237985,
   "TWO-ELECTRON ENERGY": 677.7231416522287,
   "XC GRID RADIAL POINTS": 75.0,
   "XC GRID SPHERICAL POINTS": 302.0,
   "XC GRID TOTAL POINTS": 316061.0,
   "CURRENT DIPOLE": [
    0.6834341615278734,
    -0.7296048082993294,
    -0.3860033120885836
   ],
   "SCF DIPOLE": [
    0.6834341615278734,
    -0.7296048082993294,
    -0.3860033120885836
   ]
  }
 },
 "provenance": {
  "creator": "Psi4",
  "version": "1.4a2.dev923",
  "routine": "psi4.schema_runner.run_qcschema",
  "hostname": "bignimbus",
  "cpu": "AMD EPYC Processor (with IBPB)",
  "qcengine_version": "v0.17.0",
  "wall_time": 19.45817518234253,
  "username": "ubuntu",
  "nthreads": 16,
  "memory": 100.0
 },
 "properties": {
  "calcinfo_nbasis": 370,
  "calcinfo_nmo": 370,
  "calcinfo_nalpha": 35,
  "calcinfo_nbeta": 35,
  "calcinfo_natom": 15,
  "nuclear_repulsion_energy": 501.2235939031376,
  "return_energy": -466.97422298547554,
  "scf_one_electron_energy": -1625.9712242957294,
  "scf_two_electron_energy": 677.7231416522287,
  "scf_xc_energy": -19.013367192016716,
  "scf_dispersion_correction_energy": -0.0159969,
  "scf_dipole_moment": [
   0.6834341615278734,
   -0.7296048082993294,
   -0.3860033120885836
  ],
  "scf_total_energy": -466.05385283237985,
  "scf_iterations": 9
 },
 "wavefunction": null,
 "return_result": -466.97422298547554,
 "stdout": "\n    -----------------------------------------------------------------------\n          Psi4: An Open-Source Ab Initio Electronic Structure Package\n                               Psi4 1.4a2.dev923 \n\n                         Git: Rev {master} 5de566e \n\n\n    D. G. A. Smith, L. A. Burns, A. C. Simmonett, R. M. Parrish,\n    M. C. Schieber, R. Galvelis, P. Kraus, H. Kruse, R. Di Remigio,\n    A. Alenaizan, A. M. James, S. Lehtola, J. P. Misiewicz, M. Scheurer,\n    R. A. Shaw, J. B. Schriber, Y. Xie, Z. L. Glick, D. A. Sirianni,\n    J. S. O'Brien, J. M. Waldrop, A. Kumar, E. G. Hohenstein,\n    B. P. Pritchard, B. R. Brooks, H. F. Schaefer III, A. Yu. Sokolov,\n    K. Patkowski, A. E. DePrince III, U. Bozkaya, R. A. King,\n    F. A. Evangelista, J. M. Turney, T. D. Crawford, C. D. Sherrill,\n    J. Chem. Phys. 152(18) 184108 (2020). https://doi.org/10.1063/5.0006002\n\n                            Additional Code Authors\n    E. T. Seidl, C. L. Janssen, E. F. Valeev, M. L. Leininger,\n    J. F. Gonthier, R. M. Richard, H. R. McAlexander, M. Saitow, X. Wang,\n    P. Verma, and M. H. Lechner\n\n             Previous Authors, Complete List of Code Contributors,\n                       and Citations for Specific Modules\n    https://github.com/psi4/psi4/blob/master/codemeta.json\n    https://github.com/psi4/psi4/graphs/contributors\n    http://psicode.org/psi4manual/master/introduction.html#citing-psifour\n\n    -----------------------------------------------------------------------\n\n\n    Psi4 started on: Thursday, 13 May 2021 02:01AM\n\n    Process ID: 2183319\n    Host:       bignimbus\n    PSIDATADIR: /home/ubuntu/pk/Applications/miniconda3/envs/psi4-1.4a2.dev923/share/psi4\n    Memory:     93.1 GiB\n    Threads:    16\n    \n  ==> Input QCSchema <==\n\n--------------------------------------------------------------------------\n{'driver': 'energy',\n 'extras': {},\n 'id': None,\n 'keywords': {},\n 'model': {'basis': 'pcseg-2', 'method': 'dsd-blyp-d3bj'},\n 'molecule': {'atom_labels': ['', '', '', '', '', '', '', '', '', '', '', '', '', '', ''],\n              'atomic_numbers': [6, 6, 6, 6, 6, 7, 7, 7, 7, 7, 1, 1, 1, 1, 1],\n              'fix_com': False,\n              'fix_orientation': False,\n              'fragment_charges': [0.0],\n              'fragment_multiplicities': [1],\n              'fragments': [[0, 1, 2, 3, 4, 5, 6, 7, 8, 9, 10, 11, 12, 13, 14]],\n              'geometry': [-2.600514844651058, 0.0578620588449254, -0.05834799091184806, -0.1816654040650374,\n                           -1.0514071767988198, 0.03991776761195798, 1.8611285375548747, 0.6342285271095629,\n                           0.08527119462294586, -0.6465380309276632, 3.967705412417172, 0.03235886311012681,\n                           3.1083477803570414, -3.3625422282337434, 0.004012971228259943, -2.785708004945924,\n                           2.5976539714602467, -0.05267881253547557, 1.7553038745292362, 3.1645718090975947,\n                           0.09849927750115128, 0.6309168298818285, -3.543955936277695, -0.011104837775402387,\n                           3.971952619691269, -0.9002290867621936, 0.08716092074840454, -4.769920436676644,\n                           -1.3273071911156626, -0.1112603224246671, -0.9092099623663015, 6.004830175660711,\n                           0.019130780231922273, 4.40658962854657, -4.938573816865572, -0.07157607379005348,\n                           5.787979426256242, -0.31630371399572454, -0.04700963415910131, -6.3516212036848465,\n                           -0.38811330676312206, -0.6366041853019437, -4.641419060145512, -3.160341532809756,\n                           -0.6403836375528593],\n              'mass_numbers': [12, 12, 12, 12, 12, 14, 14, 14, 14, 14, 1, 1, 1, 1, 1],\n              'masses': [12.0, 12.0, 12.0, 12.0, 12.0, 14.00307400443, 14.00307400443, 14.00307400443, 14.00307400443,\n                         14.00307400443, 1.00782503223, 1.00782503223, 1.00782503223, 1.00782503223, 1.00782503223],\n              'molecular_charge': 0.0,\n              'molecular_multiplicity': 1,\n              'name': 'C5H5N5',\n              'provenance': {'creator': 'QCElemental',\n                             'routine': 'qcelemental.molparse.from_string',\n                             'version': 'v0.19.0'},\n              'real': [True, True, True, True, True, True, True, True, True, True, True, True, True, True, True],\n              'symbols': ['C', 'C', 'C', 'C', 'C', 'N', 'N', 'N', 'N', 'N', 'H', 'H', 'H', 'H', 'H'],\n              'validated': True},\n 'protocols': {},\n 'provenance': {'creator': 'QCElemental', 'routine': 'qcelemental.models.results', 'version': 'v0.17.0'},\n 'schema_name': 'qcschema_input',\n 'schema_version': 1}\n--------------------------------------------------------------------------\n\nScratch directory: /home/ubuntu/pk/scratch/tmpji42skg6_psi_scratch/\n\n*** tstart() called on bignimbus\n*** at Thu May 13 02:01:38 2021\n\n   => Loading Basis Set <=\n\n    Name: PCSEG-2\n    Role: ORBITAL\n    Keyword: BASIS\n    atoms 1-5   entry C          line   129 file /home/ubuntu/pk/Applications/miniconda3/envs/psi4-1.4a2.dev923/share/psi4/basis/pcseg-2.gbs \n    atoms 6-10  entry N          line   161 file /home/ubuntu/pk/Applications/miniconda3/envs/psi4-1.4a2.dev923/share/psi4/basis/pcseg-2.gbs \n    atoms 11-15 entry H          line    13 file /home/ubuntu/pk/Applications/miniconda3/envs/psi4-1.4a2.dev923/share/psi4/basis/pcseg-2.gbs \n\n   => DSD-BLYP-D3BJ: Empirical Dispersion <=\n\n    Grimme's -D3 (BJ-damping) Dispersion Correction\n    Grimme S.; Ehrlich S.; Goerigk L. (2011), J. Comput. Chem., 32: 1456\n    Parametrisation from:    S. Kozuch, J.M.L. Martin, J. Comp. Chem., 34, 2327-2344, 2013\n\n        s6 =       0.570000\n        s8 =       0.000000\n        a1 =       0.000000\n        a2 =       5.400000\n\n\n         ---------------------------------------------------------\n                                   SCF\n               by Justin Turney, Rob Parrish, Andy Simmonett\n                          and Daniel G. A. Smith\n                              RKS Reference\n                       16 Threads,  95367 MiB Core\n         ---------------------------------------------------------\n\n  ==> Geometry <==\n\n    Molecular point group: c1\n    Full point group: C1\n\n    Geometry (in Bohr), charge = 0, multiplicity = 1:\n\n       Center              X                  Y                   Z               Mass       \n    ------------   -----------------  -----------------  -----------------  -----------------\n         C           -2.600514844651     0.057862058845    -0.058347990912    12.000000000000\n         C           -0.181665404065    -1.051407176799     0.039917767612    12.000000000000\n         C            1.861128537555     0.634228527110     0.085271194623    12.000000000000\n         C           -0.646538030928     3.967705412417     0.032358863110    12.000000000000\n         C            3.108347780357    -3.362542228234     0.004012971228    12.000000000000\n         N           -2.785708004946     2.597653971460    -0.052678812535    14.003074004430\n         N            1.755303874529     3.164571809098     0.098499277501    14.003074004430\n         N            0.630916829882    -3.543955936278    -0.011104837775    14.003074004430\n         N            3.971952619691    -0.900229086762     0.087160920748    14.003074004430\n         N           -4.769920436677    -1.327307191116    -0.111260322425    14.003074004430\n         H           -0.909209962366     6.004830175661     0.019130780232     1.007825032230\n         H            4.406589628547    -4.938573816866    -0.071576073790     1.007825032230\n         H            5.787979426256    -0.316303713996    -0.047009634159     1.007825032230\n         H           -6.351621203685    -0.388113306763    -0.636604185302     1.007825032230\n         H           -4.641419060146    -3.160341532810    -0.640383637553     1.007825032230\n\n  Running in c1 symmetry.\n\n  Rotational constants: A =      0.07881  B =      0.05206  C =      0.03137 [cm^-1]\n  Rotational constants: A =   2362.65971  B =   1560.84141  C =    940.48329 [MHz]\n  Nuclear repulsion =  501.223593903137612\n\n  Charge       = 0\n  Multiplicity = 1\n  Electrons    = 70\n  Nalpha       = 35\n  Nbeta        = 35\n\n  ==> Algorithm <==\n\n  SCF Algorithm Type is DF.\n  DIIS enabled.\n  MOM disabled.\n  Fractional occupation disabled.\n  Guess Type is SAD.\n  Energy threshold   = 1.00e-06\n  Density threshold  = 1.00e-06\n  Integral threshold = 0.00e+00\n\n  ==> Primary Basis <==\n\n  Basis Set: PCSEG-2\n    Blend: PCSEG-2\n    Number of shells: 130\n    Number of basis function: 370\n    Number of Cartesian functions: 425\n    Spherical Harmonics?: true\n    Max angular momentum: 3\n\n  ==> DFT Potential <==\n\n   => Composite Functional: DSD-BLYP-D3BJ <= \n\n    DSD-BLYP-D3BJ Dispersion-corrected SCS Double Hybrid XC Functional\n\n    S. Kozuch, J.M.L. Martin, J. Comp. Chem., 34, 2327-2344, 2013\n\n\n    Deriv               =              1\n    GGA                 =           TRUE\n    Meta                =          FALSE\n\n    Exchange Hybrid     =           TRUE\n    MP2 Hybrid          =           TRUE\n\n   => Exchange Functionals <=\n\n    0.2900     XC_GGA_X_B88\n\n   => Exact (HF) Exchange <=\n\n    0.7100               HF \n\n   => Correlation Functionals <=\n\n    0.5400     XC_GGA_C_LYP\n\n   => MP2 Correlation <=\n\n    MP2 SCS Hybrid      =           TRUE\n    MP2 OS Alpha        =       0.470000\n    MP2 SS Alpha        =       0.400000\n\n   => LibXC Density Thresholds  <==\n\n    XC_GGA_C_LYP:  1.00E-32 \n    XC_GGA_X_B88:  1.00E-25 \n\n   => Molecular Quadrature <=\n\n    Radial Scheme          =       TREUTLER\n    Pruning Scheme         =           NONE\n    Nuclear Scheme         =       TREUTLER\n\n    BS radius alpha        =              1\n    Pruning alpha          =              1\n    Radial Points          =             75\n    Spherical Points       =            302\n    Total Points           =         316061\n    Total Blocks           =           2364\n    Max Points             =            256\n    Max Functions          =            337\n    Weights Tolerance      =       1.00E-15\n\n   => Loading Basis Set <=\n\n    Name: (PCSEG-2 AUX)\n    Role: JKFIT\n    Keyword: DF_BASIS_SCF\n    atoms 1-5   entry C          line   198 file /home/ubuntu/pk/Applications/miniconda3/envs/psi4-1.4a2.dev923/share/psi4/basis/def2-universal-jkfit.gbs \n    atoms 6-10  entry N          line   258 file /home/ubuntu/pk/Applications/miniconda3/envs/psi4-1.4a2.dev923/share/psi4/basis/def2-universal-jkfit.gbs \n    atoms 11-15 entry H          line    18 file /home/ubuntu/pk/Applications/miniconda3/envs/psi4-1.4a2.dev923/share/psi4/basis/def2-universal-jkfit.gbs \n\n  ==> Integral Setup <==\n\n  DFHelper Memory: AOs need 0.826 GiB; user supplied 67.719 GiB. Using in-core AOs.\n\n  ==> MemDFJK: Density-Fitted J/K Matrices <==\n\n    J tasked:                   Yes\n    K tasked:                   Yes\n    wK tasked:                   No\n    OpenMP threads:              16\n    Memory [MiB]:             69344\n    Algorithm:                 Core\n    Schwarz Cutoff:           1E-12\n    Mask sparsity (%):      10.3828\n    Fitting Condition:        1E-10\n\n   => Auxiliary Basis Set <=\n\n  Basis Set: (PCSEG-2 AUX)\n    Blend: DEF2-UNIVERSAL-JKFIT\n    Number of shells: 280\n    Number of basis function: 850\n    Number of Cartesian functions: 1010\n    Spherical Harmonics?: true\n    Max angular momentum: 4\n\n  Cached 100.0% of DFT collocation blocks in 2.130 [GiB].\n\n  Minimum eigenvalue in the overlap matrix is 5.7667941850E-05.\n  Reciprocal condition number of the overlap matrix is 5.5752892124E-06.\n    Using symmetric orthogonalization.\n\n  ==> Pre-Iterations <==\n\n  SCF Guess: Superposition of Atomic Densities via on-the-fly atomic UHF (no occupation information).\n\n   -------------------------\n    Irrep   Nso     Nmo    \n   -------------------------\n     A        370     370 \n   -------------------------\n    Total     370     370\n   -------------------------\n\n  ==> Iterations <==\n\n                           Total Energy        Delta E     RMS |[F,P]|\n\n   @DF-RKS iter SAD:  -465.89586319169746   -4.65896e+02   0.00000e+00 \n   @DF-RKS iter   1:  -465.77024781539160    1.25615e-01   2.09278e-03 DIIS\n   @DF-RKS iter   2:  -465.93239989598248   -1.62152e-01   1.44324e-03 DIIS\n   @DF-RKS iter   3:  -466.04983082536978   -1.17431e-01   2.39797e-04 DIIS\n   @DF-RKS iter   4:  -466.05282503140387   -2.99421e-03   1.25169e-04 DIIS\n   @DF-RKS iter   5:  -466.05379694081626   -9.71909e-04   2.58773e-05 DIIS\n   @DF-RKS iter   6:  -466.05384449191780   -4.75511e-05   8.77953e-06 DIIS\n   @DF-RKS iter   7:  -466.05385166292842   -7.17101e-06   2.92877e-06 DIIS\n   @DF-RKS iter   8:  -466.05385262664390   -9.63715e-07   1.38187e-06 DIIS\n   @DF-RKS iter   9:  -466.05385283237985   -2.05736e-07   4.51604e-07 DIIS\n  Energy and wave function converged.\n\n\n  ==> Post-Iterations <==\n\n    Orbital Energies [Eh]\n    ---------------------\n\n    Doubly Occupied:                                                      \n\n       1A    -15.185285     2A    -15.136868     3A    -15.123250  \n       4A    -15.113758     5A    -15.106955     6A    -10.955650  \n       7A    -10.944614     8A    -10.938481     9A    -10.928386  \n      10A    -10.881102    11A     -1.251408    12A     -1.187444  \n      13A     -1.138298    14A     -1.083914    15A     -1.050588  \n      16A     -0.942731    17A     -0.818197    18A     -0.800837  \n      19A     -0.772623    20A     -0.711863    21A     -0.673529  \n      22A     -0.636198    23A     -0.617027    24A     -0.582716  \n      25A     -0.576447    26A     -0.557141    27A     -0.535849  \n      28A     -0.508053    29A     -0.454317    30A     -0.439928  \n      31A     -0.399236    32A     -0.386716    33A     -0.361290  \n      34A     -0.342245    35A     -0.288097  \n\n    Virtual:                                                              \n\n      36A      0.050029    37A      0.057317    38A      0.074906  \n      39A      0.082828    40A      0.094484    41A      0.102535  \n      42A      0.116979    43A      0.124395    44A      0.145944  \n      45A      0.180373    46A      0.198851    47A      0.201688  \n      48A      0.209116    49A      0.224478    50A      0.236696  \n      51A      0.256418    52A      0.273788    53A      0.284611  \n      54A      0.300858    55A      0.304091    56A      0.313075  \n      57A      0.317232    58A      0.339469    59A      0.348682  \n      60A      0.352713    61A      0.357267    62A      0.364784  \n      63A      0.376597    64A      0.389651    65A      0.406787  \n      66A      0.414323    67A      0.419850    68A      0.428160  \n      69A      0.432707    70A      0.455644    71A      0.459613  \n      72A      0.462333    73A      0.481983    74A      0.491963  \n      75A      0.497064    76A      0.516818    77A      0.522741  \n      78A      0.530768    79A      0.531363    80A      0.538125  \n      81A      0.557273    82A      0.576148    83A      0.602931  \n      84A      0.604771    85A      0.613632    86A      0.632985  \n      87A      0.654859    88A      0.665680    89A      0.673571  \n      90A      0.698629    91A      0.711691    92A      0.718177  \n      93A      0.746340    94A      0.758952    95A      0.779884  \n      96A      0.781632    97A      0.808525    98A      0.816122  \n      99A      0.835261   100A      0.851497   101A      0.864831  \n     102A      0.879456   103A      0.943022   104A      0.973483  \n     105A      1.000158   106A      1.012874   107A      1.031413  \n     108A      1.044104   109A      1.087913   110A      1.092846  \n     111A      1.123924   112A      1.132588   113A      1.168763  \n     114A      1.183390   115A      1.192283   116A      1.204167  \n     117A      1.216585   118A      1.230106   119A      1.272750  \n     120A      1.289268   121A      1.301475   122A      1.306426  \n     123A      1.321893   124A      1.369437   125A      1.380791  \n     126A      1.401363   127A      1.434983   128A      1.438536  \n     129A      1.458252   130A      1.476509   131A      1.488483  \n     132A      1.498645   133A      1.510354   134A      1.513576  \n     135A      1.531365   136A      1.546340   137A      1.563642  \n     138A      1.572402   139A      1.599582   140A      1.622202  \n     141A      1.633926   142A      1.641877   143A      1.667428  \n     144A      1.677825   145A      1.710875   146A      1.725364  \n     147A      1.739345   148A      1.766743   149A      1.786440  \n     150A      1.795959   151A      1.808114   152A      1.826845  \n     153A      1.841426   154A      1.874080   155A      1.885818  \n     156A      1.894576   157A      1.901536   158A      1.918186  \n     159A      1.937024   160A      1.957102   161A      1.966658  \n     162A      1.993606   163A      2.010216   164A      2.025955  \n     165A      2.051892   166A      2.055932   167A      2.089599  \n     168A      2.119442   169A      2.131837   170A      2.144970  \n     171A      2.176973   172A      2.207099   173A      2.225810  \n     174A      2.248758   175A      2.266861   176A      2.290497  \n     177A      2.309941   178A      2.318616   179A      2.341816  \n     180A      2.397578   181A      2.406048   182A      2.421321  \n     183A      2.448028   184A      2.474541   185A      2.517854  \n     186A      2.528383   187A      2.537936   188A      2.609598  \n     189A      2.672277   190A      2.676718   191A      2.751539  \n     192A      2.771921   193A      2.925733   194A      2.994414  \n     195A      3.027220   196A      3.059297   197A      3.095960  \n     198A      3.141160   199A      3.172163   200A      3.173729  \n     201A      3.198045   202A      3.231005   203A      3.273024  \n     204A      3.307956   205A      3.343981   206A      3.366302  \n     207A      3.379712   208A      3.413023   209A      3.458711  \n     210A      3.487486   211A      3.501013   212A      3.513321  \n     213A      3.550829   214A      3.560845   215A      3.585002  \n     216A      3.603778   217A      3.637545   218A      3.650655  \n     219A      3.670476   220A      3.685159   221A      3.705880  \n     222A      3.708156   223A      3.768939   224A      3.787718  \n     225A      3.796788   226A      3.833745   227A      3.856638  \n     228A      3.885763   229A      3.919795   230A      3.929461  \n     231A      3.962432   232A      3.973711   233A      3.995203  \n     234A      4.002494   235A      4.018989   236A      4.041371  \n     237A      4.066257   238A      4.098237   239A      4.118049  \n     240A      4.128102   241A      4.163796   242A      4.176020  \n     243A      4.182432   244A      4.206595   245A      4.219447  \n     246A      4.249136   247A      4.260837   248A      4.286618  \n     249A      4.299500   250A      4.309688   251A      4.354792  \n     252A      4.363734   253A      4.390500   254A      4.403697  \n     255A      4.408574   256A      4.420386   257A      4.424807  \n     258A      4.444697   259A      4.453961   260A      4.474229  \n     261A      4.493322   262A      4.498642   263A      4.510452  \n     264A      4.527985   265A      4.532029   266A      4.548495  \n     267A      4.575522   268A      4.588596   269A      4.602061  \n     270A      4.622822   271A      4.633079   272A      4.638424  \n     273A      4.649936   274A      4.669823   275A      4.682477  \n     276A      4.705274   277A      4.707960   278A      4.726675  \n     279A      4.739783   280A      4.748223   281A      4.762827  \n     282A      4.783961   283A      4.801698   284A      4.844742  \n     285A      4.848422   286A      4.888385   287A      4.922168  \n     288A      4.960574   289A      4.967849   290A      4.981713  \n     291A      5.003924   292A      5.024995   293A      5.047886  \n     294A      5.065020   295A      5.108467   296A      5.133015  \n     297A      5.156940   298A      5.189479   299A      5.196763  \n     300A      5.214289   301A      5.223719   302A      5.247010  \n     303A      5.267051   304A      5.313121   305A      5.324929  \n     306A      5.355221   307A      5.387197   308A      5.402429  \n     309A      5.426740   310A      5.452316   311A      5.466427  \n     312A      5.477793   313A      5.521484   314A      5.527448  \n     315A      5.546136   316A      5.567504   317A      5.589413  \n     318A      5.596943   319A      5.609766   320A      5.654195  \n     321A      5.655722   322A      5.699691   323A      5.710242  \n     324A      5.722552   325A      5.743921   326A      5.752038  \n     327A      5.756771   328A      5.783794   329A      5.787257  \n     330A      5.794873   331A      5.801223   332A      5.826196  \n     333A      5.842959   334A      5.894847   335A      5.903116  \n     336A      5.936238   337A      5.959548   338A      6.009931  \n     339A      6.030561   340A      6.046935   341A      6.083041  \n     342A      6.131685   343A      6.145632   344A      6.183219  \n     345A      6.188128   346A      6.211690   347A      6.226304  \n     348A      6.275711   349A      6.328541   350A      6.352878  \n     351A      6.403049   352A      6.424478   353A      6.503494  \n     354A      6.553493   355A      6.587160   356A      6.637319  \n     357A      6.646253   358A      6.776608   359A      6.790475  \n     360A      6.825258   361A      6.885951   362A      6.965277  \n     363A      7.009560   364A      7.100335   365A      7.160198  \n     366A      7.200865   367A      7.343024   368A      7.484611  \n     369A      8.469307   370A     10.063551  \n\n    Final Occupation by Irrep:\n              A \n    DOCC [    35 ]\n\n  @DF-RKS Final Energy:  -466.05385283237985\n\n   => Energetics <=\n\n    Nuclear Repulsion Energy =            501.2235939031376120\n    One-Electron Energy =               -1625.9712242957293711\n    Two-Electron Energy =                 677.7231416522287191\n    DFT Exchange-Correlation Energy =     -19.0133671920167160\n    Empirical Dispersion Energy =          -0.0159969000000000\n    VV10 Nonlocal Energy =                  0.0000000000000000\n    Total Energy =                       -466.0538528323799028\n\nComputation Completed\n\n\nProperties will be evaluated at   0.000000,   0.000000,   0.000000 [a0]\n\nProperties computed using the SCF density matrix\n\n  Nuclear Dipole Moment: [e a0]\n     X:    -0.8453      Y:    -1.3883      Z:    -0.6829\n\n  Electronic Dipole Moment: [e a0]\n     X:     1.5288      Y:     0.6587      Z:     0.2968\n\n  Dipole Moment: [e a0]\n     X:     0.6834      Y:    -0.7296      Z:    -0.3860     Total:     1.0716\n\n  Dipole Moment: [D]\n     X:     1.7371      Y:    -1.8545      Z:    -0.9811     Total:     2.7238\n\n\n*** tstop() called on bignimbus at Thu May 13 02:01:49 2021\nModule time:\n\tuser time   =     130.49 seconds =       2.17 minutes\n\tsystem time =       6.36 seconds =       0.11 minutes\n\ttotal time  =         11 seconds =       0.18 minutes\nTotal time:\n\tuser time   =     130.49 seconds =       2.17 minutes\n\tsystem time =       6.36 seconds =       0.11 minutes\n\ttotal time  =         11 seconds =       0.18 minutes\n\n*** tstart() called on bignimbus\n*** at Thu May 13 02:01:49 2021\n\n   => Loading Basis Set <=\n\n    Name: (PCSEG-2 AUX)\n    Role: RIFIT\n    Keyword: DF_BASIS_MP2\n    atoms 1-5   entry C          line   191 file /home/ubuntu/pk/Applications/miniconda3/envs/psi4-1.4a2.dev923/share/psi4/basis/def2-tzvpp-ri.gbs \n    atoms 6-10  entry N          line   238 file /home/ubuntu/pk/Applications/miniconda3/envs/psi4-1.4a2.dev923/share/psi4/basis/def2-tzvpp-ri.gbs \n    atoms 11-15 entry H          line    22 file /home/ubuntu/pk/Applications/miniconda3/envs/psi4-1.4a2.dev923/share/psi4/basis/def2-tzvpp-ri.gbs \n\n\t --------------------------------------------------------\n\t                          DF-MP2                         \n\t      2nd-Order Density-Fitted Moller-Plesset Theory     \n\t              RMP2 Wavefunction,  16 Threads             \n\t                                                         \n\t        Rob Parrish, Justin Turney, Andy Simmonett,      \n\t           Ed Hohenstein, and C. David Sherrill          \n\t --------------------------------------------------------\n\n   => Auxiliary Basis Set <=\n\n  Basis Set: (PCSEG-2 AUX)\n    Blend: DEF2-TZVPP-RI\n    Number of shells: 270\n    Number of basis function: 910\n    Number of Cartesian functions: 1125\n    Spherical Harmonics?: true\n    Max angular momentum: 4\n\n\t --------------------------------------------------------\n\t                 NBF =   370, NAUX =   910\n\t --------------------------------------------------------\n\t   CLASS    FOCC     OCC    AOCC    AVIR     VIR    FVIR\n\t   PAIRS       0      35      35     335     335       0\n\t --------------------------------------------------------\n\n\t-----------------------------------------------------------\n\t ==================> DF-MP2 Energies <==================== \n\t-----------------------------------------------------------\n\t Reference Energy          =    -466.0538528323798459 [Eh]\n\t Singles Energy            =      -0.0000000000000000 [Eh]\n\t Same-Spin Energy          =      -0.5507234109884085 [Eh]\n\t Opposite-Spin Energy      =      -1.4895335929793909 [Eh]\n\t Correlation Energy        =      -2.0402570039677994 [Eh]\n\t Total Energy              =    -468.0941098363476272 [Eh]\n\t-----------------------------------------------------------\n\t ================> DF-SCS-MP2 Energies <================== \n\t-----------------------------------------------------------\n\t SCS Same-Spin Scale       =       0.4000000000000000 [-]\n\t SCS Opposite-Spin Scale   =       0.4700000000000000 [-]\n\t SCS Same-Spin Energy      =      -0.2202893643953634 [Eh]\n\t SCS Opposite-Spin Energy  =      -0.7000807887003136 [Eh]\n\t SCS Correlation Energy    =      -1.9710147819047386 [Eh]\n\t SCS Total Energy          =    -468.0248676142845738 [Eh]\n\t-----------------------------------------------------------\n\n\n\n    DSD-BLYP-D3BJ Energy Summary\n    ----------------------------\n    DFT Reference Energy                  =  -466.0538528323798459\n    Scaled MP2 Correlation                =    -0.9203701530956770\n    @Final double-hybrid DFT total energy =  -466.9742229854755351\n\n\n*** tstop() called on bignimbus at Thu May 13 02:01:53 2021\nModule time:\n\tuser time   =      41.15 seconds =       0.69 minutes\n\tsystem time =       1.19 seconds =       0.02 minutes\n\ttotal time  =          4 seconds =       0.07 minutes\nTotal time:\n\tuser time   =     171.66 seconds =       2.86 minutes\n\tsystem time =       7.55 seconds =       0.13 minutes\n\ttotal time  =         15 seconds =       0.25 minutes\n\n    Psi4 stopped on: Thursday, 13 May 2021 02:01AM\n    Psi4 wall time for execution: 0:00:14.79\n\n*** Psi4 exiting successfully. Buy a developer a beer!\n",
 "stderr": null,
 "success": true,
 "error": null,
 "tag": "dsd-blyp-d3bj pcseg-2 c3a_a"
}