{
 "id": null,
 "schema_name": "qcschema_output",
 "schema_version": 1,
 "molecule": {
  "validated": true,
  "symbols": [
   "C",
   "C",
   "C",
   "C",
   "C",
   "N",
   "N",
   "N",
   "N",
   "N",
   "H",
   "H",
   "H",
   "H",
   "H"
  ],
  "geometry": [
   -2.6005148446510584,
   0.057862058844925304,
   -0.05834799091184591,
   -0.18166540406503784,
   -1.0514071767988198,
   0.03991776761196013,
   1.8611285375548743,
   0.6342285271095628,
   0.08527119462294801,
   -0.6465380309276636,
   3.967705412417172,
   0.03235886311012896,
   3.108347780357041,
   -3.3625422282337434,
   0.004012971228262092,
   -2.7857080049459246,
   2.5976539714602467,
   -0.05267881253547342,
   1.7553038745292358,
   3.1645718090975947,
   0.09849927750115343,
   0.6309168298818281,
   -3.543955936277695,
   -0.011104837775400238,
   3.9719526196912684,
   -0.9002290867621937,
   0.08716092074840669,
   -4.769920436676645,
   -1.3273071911156626,
   -0.11126032242466495,
   -0.9092099623663019,
   6.004830175660711,
   0.01913078023192442,
   4.406589628546569,
   -4.938573816865572,
   -0.07157607379005133,
   5.787979426256241,
   -0.31630371399572466,
   -0.04700963415909916,
   -6.351621203684847,
   -0.38811330676312217,
   -0.6366041853019416,
   -4.6414190601455125,
   -3.160341532809756,
   -0.6403836375528572
  ],
  "name": "C5H5N5",
  "molecular_charge": 0.0,
  "molecular_multiplicity": 1,
  "masses": [
   12.0,
   12.0,
   12.0,
   12.0,
   12.0,
   14.00307400443,
   14.00307400443,
   14.00307400443,
   14.00307400443,
   14.00307400443,
   1.00782503223,
   1.00782503223,
   1.00782503223,
   1.00782503223,
   1.00782503223
  ],
  "real": [
   true,
   true,
   true,
   true,
   true,
   true,
   true,
   true,
   true,
   true,
   true,
   true,
   true,
   true,
   true
  ],
  "atom_labels": [
   "",
   "",
   "",
   "",
   "",
   "",
   "",
   "",
   "",
   "",
   "",
   "",
   "",
   "",
   ""
  ],
  "atomic_numbers": [
   6,
   6,
   6,
   6,
   6,
   7,
   7,
   7,
   7,
   7,
   1,
   1,
   1,
   1,
   1
  ],
  "mass_numbers": [
   12,
   12,
   12,
   12,
   12,
   14,
   14,
   14,
   14,
   14,
   1,
   1,
   1,
   1,
   1
  ],
  "fragments": [
   [
    0,
    1,
    2,
    3,
    4,
    5,
    6,
    7,
    8,
    9,
    10,
    11,
    12,
    13,
    14
   ]
  ],
  "fragment_charges": [
   0.0
  ],
  "fragment_multiplicities": [
   1
  ],
  "fix_com": false,
  "fix_orientation": false,
  "provenance": {
   "creator": "QCElemental",
   "version": "v0.19.0",
   "routine": "qcelemental.molparse.from_string"
  }
 },
 "driver": "energy",
 "model": {
  "method": "b2plyp-d3bj",
  "basis": "aug-pcseg-1"
 },
 "keywords": {
  "guess": "SAP",
  "freeze_core": "true",
  "dft_vv10_postscf": "true"
 },
 "protocols": {},
 "extras": {
  "qcvars": {
   "2-BODY DISPERSION CORRECTION ENERGY": -0.01264283,
   "B2PLYP-D3(BJ) DISPERSION CORRECTION ENERGY": -0.01264283,
   "B2PLYP-D3BJ DOUBLE-HYBRID CORRECTION ENERGY": -0.503950176193181,
   "B2PLYP-D3BJ TOTAL ENERGY": -466.8257554249317,
   "CURRENT DIPOLE X": 1.6682298867763259,
   "CURRENT DIPOLE Y": -1.8459343241598052,
   "CURRENT DIPOLE Z": -0.9341172880451426,
   "CURRENT ENERGY": -466.8257554249317,
   "CURRENT REFERENCE ENERGY": -466.3218052487385,
   "DFT FUNCTIONAL TOTAL ENERGY": -466.30916241873854,
   "DFT TOTAL ENERGY": -466.8257554249317,
   "DFT VV10 ENERGY": 0.0,
   "DFT XC ENERGY": -30.439739872167472,
   "DISPERSION CORRECTION ENERGY": -0.01264283,
   "DOUBLE-HYBRID CORRECTION ENERGY": -0.503950176193181,
   "NUCLEAR REPULSION ENERGY": 501.22359390313767,
   "ONE-ELECTRON ENERGY": -1625.582712414442,
   "PCM POLARIZATION ENERGY": 0.0,
   "PE ENERGY": 0.0,
   "SCF DIPOLE X": 1.6682298867763259,
   "SCF DIPOLE Y": -1.8459343241598052,
   "SCF DIPOLE Z": -0.9341172880451426,
   "SCF ITERATION ENERGY": -466.3218052487385,
   "SCF ITERATIONS": 11.0,
   "SCF TOTAL ENERGY": -466.3218052487385,
   "TWO-ELECTRON ENERGY": 688.4896959647333,
   "XC GRID RADIAL POINTS": 75.0,
   "XC GRID SPHERICAL POINTS": 302.0,
   "XC GRID TOTAL POINTS": 317512.0,
   "CURRENT DIPOLE": [
    0.6563321394754222,
    -0.7262464447559469,
    -0.36751001947841866
   ],
   "SCF DIPOLE": [
    0.6563321394754222,
    -0.7262464447559469,
    -0.36751001947841866
   ]
  }
 },
 "provenance": {
  "creator": "Psi4",
  "version": "1.4a2.dev923",
  "routine": "psi4.schema_runner.run_qcschema",
  "cpu": "Intel(R) Xeon(R) CPU E5-2680 v4 @ 2.40GHz",
  "username": "kraus",
  "qcengine_version": "v0.16.0",
  "wall_time": 19.35595703125,
  "memory": 120.0,
  "hostname": "z049",
  "nthreads": 24
 },
 "properties": {
  "calcinfo_nbasis": 275,
  "calcinfo_nmo": 275,
  "calcinfo_nalpha": 35,
  "calcinfo_nbeta": 35,
  "calcinfo_natom": 15,
  "nuclear_repulsion_energy": 501.22359390313767,
  "return_energy": -466.8257554249317,
  "scf_one_electron_energy": -1625.582712414442,
  "scf_two_electron_energy": 688.4896959647333,
  "scf_xc_energy": -30.439739872167472,
  "scf_dispersion_correction_energy": -0.01264283,
  "scf_dipole_moment": [
   0.6563321394754222,
   -0.7262464447559469,
   -0.36751001947841866
  ],
  "scf_total_energy": -466.3218052487385,
  "scf_iterations": 11
 },
 "wavefunction": null,
 "return_result": -466.8257554249317,
 "stdout": "\n    -----------------------------------------------------------------------\n          Psi4: An Open-Source Ab Initio Electronic Structure Package\n                               Psi4 1.4a2.dev923 \n\n                         Git: Rev {master} 5de566e \n\n\n    D. G. A. Smith, L. A. Burns, A. C. Simmonett, R. M. Parrish,\n    M. C. Schieber, R. Galvelis, P. Kraus, H. Kruse, R. Di Remigio,\n    A. Alenaizan, A. M. James, S. Lehtola, J. P. Misiewicz, M. Scheurer,\n    R. A. Shaw, J. B. Schriber, Y. Xie, Z. L. Glick, D. A. Sirianni,\n    J. S. O'Brien, J. M. Waldrop, A. Kumar, E. G. Hohenstein,\n    B. P. Pritchard, B. R. Brooks, H. F. Schaefer III, A. Yu. Sokolov,\n    K. Patkowski, A. E. DePrince III, U. Bozkaya, R. A. King,\n    F. A. Evangelista, J. M. Turney, T. D. Crawford, C. D. Sherrill,\n    J. Chem. Phys. 152(18) 184108 (2020). https://doi.org/10.1063/5.0006002\n\n                            Additional Code Authors\n    E. T. Seidl, C. L. Janssen, E. F. Valeev, M. L. Leininger,\n    J. F. Gonthier, R. M. Richard, H. R. McAlexander, M. Saitow, X. Wang,\n    P. Verma, and M. H. Lechner\n\n             Previous Authors, Complete List of Code Contributors,\n                       and Citations for Specific Modules\n    https://github.com/psi4/psi4/blob/master/codemeta.json\n    https://github.com/psi4/psi4/graphs/contributors\n    http://psicode.org/psi4manual/master/introduction.html#citing-psifour\n\n    -----------------------------------------------------------------------\n\n\n    Psi4 started on: Monday, 17 May 2021 05:19PM\n\n    Process ID: 20180\n    Host:       z049\n    PSIDATADIR: /group/f97/kraus/miniconda3/envs/psi4-1.4a2.dev923/share/psi4\n    Memory:     111.8 GiB\n    Threads:    24\n    \n  ==> Input QCSchema <==\n\n--------------------------------------------------------------------------\n{'driver': 'energy',\n 'extras': {},\n 'id': None,\n 'keywords': {'dft_vv10_postscf': 'true', 'freeze_core': 'true', 'guess': 'SAP'},\n 'model': {'basis': 'aug-pcseg-1', 'method': 'b2plyp-d3bj'},\n 'molecule': {'atom_labels': ['', '', '', '', '', '', '', '', '', '', '', '', '', '', ''],\n              'atomic_numbers': [6, 6, 6, 6, 6, 7, 7, 7, 7, 7, 1, 1, 1, 1, 1],\n              'fix_com': False,\n              'fix_orientation': False,\n              'fragment_charges': [0.0],\n              'fragment_multiplicities': [1],\n              'fragments': [[0, 1, 2, 3, 4, 5, 6, 7, 8, 9, 10, 11, 12, 13, 14]],\n              'geometry': [-2.600514844651058, 0.0578620588449254, -0.05834799091184806, -0.1816654040650374,\n                           -1.0514071767988198, 0.03991776761195798, 1.8611285375548747, 0.6342285271095629,\n                           0.08527119462294586, -0.6465380309276632, 3.967705412417172, 0.03235886311012681,\n                           3.1083477803570414, -3.3625422282337434, 0.004012971228259943, -2.785708004945924,\n                           2.5976539714602467, -0.05267881253547557, 1.7553038745292362, 3.1645718090975947,\n                           0.09849927750115128, 0.6309168298818285, -3.543955936277695, -0.011104837775402387,\n                           3.971952619691269, -0.9002290867621936, 0.08716092074840454, -4.769920436676644,\n                           -1.3273071911156626, -0.1112603224246671, -0.9092099623663015, 6.004830175660711,\n                           0.019130780231922273, 4.40658962854657, -4.938573816865572, -0.07157607379005348,\n                           5.787979426256242, -0.31630371399572454, -0.04700963415910131, -6.3516212036848465,\n                           -0.38811330676312206, -0.6366041853019437, -4.641419060145512, -3.160341532809756,\n                           -0.6403836375528593],\n              'mass_numbers': [12, 12, 12, 12, 12, 14, 14, 14, 14, 14, 1, 1, 1, 1, 1],\n              'masses': [12.0, 12.0, 12.0, 12.0, 12.0, 14.00307400443, 14.00307400443, 14.00307400443, 14.00307400443,\n                         14.00307400443, 1.00782503223, 1.00782503223, 1.00782503223, 1.00782503223, 1.00782503223],\n              'molecular_charge': 0.0,\n              'molecular_multiplicity': 1,\n              'name': 'C5H5N5',\n              'provenance': {'creator': 'QCElemental',\n                             'routine': 'qcelemental.molparse.from_string',\n                             'version': 'v0.19.0'},\n              'real': [True, True, True, True, True, True, True, True, True, True, True, True, True, True, True],\n              'symbols': ['C', 'C', 'C', 'C', 'C', 'N', 'N', 'N', 'N', 'N', 'H', 'H', 'H', 'H', 'H'],\n              'validated': True},\n 'protocols': {},\n 'provenance': {'creator': 'QCElemental', 'routine': 'qcelemental.models.results', 'version': 'v0.16.0'},\n 'schema_name': 'qcschema_input',\n 'schema_version': 1}\n--------------------------------------------------------------------------\n\nScratch directory: /scratch/f97/kraus/scratch/tmp_rtks2n7_psi_scratch/\n\n*** tstart() called on z049\n*** at Mon May 17 17:19:06 2021\n\n   => Loading Basis Set <=\n\n    Name: AUG-PCSEG-1\n    Role: ORBITAL\n    Keyword: BASIS\n    atoms 1-5   entry C          line   112 file /group/f97/kraus/miniconda3/envs/psi4-1.4a2.dev923/share/psi4/basis/aug-pcseg-1.gbs \n    atoms 6-10  entry N          line   139 file /group/f97/kraus/miniconda3/envs/psi4-1.4a2.dev923/share/psi4/basis/aug-pcseg-1.gbs \n    atoms 11-15 entry H          line    13 file /group/f97/kraus/miniconda3/envs/psi4-1.4a2.dev923/share/psi4/basis/aug-pcseg-1.gbs \n\n   => B2PLYP-D3(BJ): Empirical Dispersion <=\n\n    Grimme's -D3 (BJ-damping) Dispersion Correction\n    Grimme S.; Ehrlich S.; Goerigk L. (2011), J. Comput. Chem., 32: 1456\n    Parametrisation from:    L. Goerigk, S. Grimme, Phys. Chem. Chem. Phys. 13, 6670-6688, 2011\n\n        s6 =       0.640000\n        s8 =       0.914700\n        a1 =       0.306500\n        a2 =       5.057000\n\n\n         ---------------------------------------------------------\n                                   SCF\n               by Justin Turney, Rob Parrish, Andy Simmonett\n                          and Daniel G. A. Smith\n                              RKS Reference\n                       24 Threads, 114440 MiB Core\n         ---------------------------------------------------------\n\n  ==> Geometry <==\n\n    Molecular point group: c1\n    Full point group: C1\n\n    Geometry (in Bohr), charge = 0, multiplicity = 1:\n\n       Center              X                  Y                   Z               Mass       \n    ------------   -----------------  -----------------  -----------------  -----------------\n         C           -2.600514844651     0.057862058845    -0.058347990912    12.000000000000\n         C           -0.181665404065    -1.051407176799     0.039917767612    12.000000000000\n         C            1.861128537555     0.634228527110     0.085271194623    12.000000000000\n         C           -0.646538030928     3.967705412417     0.032358863110    12.000000000000\n         C            3.108347780357    -3.362542228234     0.004012971228    12.000000000000\n         N           -2.785708004946     2.597653971460    -0.052678812535    14.003074004430\n         N            1.755303874529     3.164571809098     0.098499277501    14.003074004430\n         N            0.630916829882    -3.543955936278    -0.011104837775    14.003074004430\n         N            3.971952619691    -0.900229086762     0.087160920748    14.003074004430\n         N           -4.769920436677    -1.327307191116    -0.111260322425    14.003074004430\n         H           -0.909209962366     6.004830175661     0.019130780232     1.007825032230\n         H            4.406589628547    -4.938573816866    -0.071576073790     1.007825032230\n         H            5.787979426256    -0.316303713996    -0.047009634159     1.007825032230\n         H           -6.351621203685    -0.388113306763    -0.636604185302     1.007825032230\n         H           -4.641419060146    -3.160341532810    -0.640383637553     1.007825032230\n\n  Running in c1 symmetry.\n\n  Rotational constants: A =      0.07881  B =      0.05206  C =      0.03137 [cm^-1]\n  Rotational constants: A =   2362.65971  B =   1560.84141  C =    940.48329 [MHz]\n  Nuclear repulsion =  501.223593903137669\n\n  Charge       = 0\n  Multiplicity = 1\n  Electrons    = 70\n  Nalpha       = 35\n  Nbeta        = 35\n\n  ==> Algorithm <==\n\n  SCF Algorithm Type is DF.\n  DIIS enabled.\n  MOM disabled.\n  Fractional occupation disabled.\n  Guess Type is SAP.\n  Energy threshold   = 1.00e-06\n  Density threshold  = 1.00e-06\n  Integral threshold = 0.00e+00\n\n  ==> Primary Basis <==\n\n  Basis Set: AUG-PCSEG-1\n    Blend: AUG-PCSEG-1\n    Number of shells: 115\n    Number of basis function: 275\n    Number of Cartesian functions: 295\n    Spherical Harmonics?: true\n    Max angular momentum: 2\n\n  ==> DFT Potential <==\n\n   => Composite Functional: B2PLYP-D3BJ <= \n\n    B2PLYP Double Hybrid Exchange-Correlation Functional\n\n    S. Grimme, J. Chem. Phys., 124, 034108, 2006\n\n\n    Deriv               =              1\n    GGA                 =           TRUE\n    Meta                =          FALSE\n\n    Exchange Hybrid     =           TRUE\n    MP2 Hybrid          =           TRUE\n\n   => Exchange Functionals <=\n\n    0.4700     XC_GGA_X_B88\n\n   => Exact (HF) Exchange <=\n\n    0.5300               HF \n\n   => Correlation Functionals <=\n\n    0.7300     XC_GGA_C_LYP\n\n   => MP2 Correlation <=\n\n    0.2700       MP2 \n\n   => LibXC Density Thresholds  <==\n\n    XC_GGA_C_LYP:  1.00E-32 \n    XC_GGA_X_B88:  1.00E-25 \n\n   => Molecular Quadrature <=\n\n    Radial Scheme          =       TREUTLER\n    Pruning Scheme         =           NONE\n    Nuclear Scheme         =       TREUTLER\n\n    BS radius alpha        =              1\n    Pruning alpha          =              1\n    Radial Points          =             75\n    Spherical Points       =            302\n    Total Points           =         317513\n    Total Blocks           =           2382\n    Max Points             =            256\n    Max Functions          =            265\n    Weights Tolerance      =       1.00E-15\n\n   => Loading Basis Set <=\n\n    Name: (AUG-PCSEG-1 AUX)\n    Role: JKFIT\n    Keyword: DF_BASIS_SCF\n    atoms 1-5   entry C          line   198 file /group/f97/kraus/miniconda3/envs/psi4-1.4a2.dev923/share/psi4/basis/def2-universal-jkfit.gbs \n    atoms 6-10  entry N          line   258 file /group/f97/kraus/miniconda3/envs/psi4-1.4a2.dev923/share/psi4/basis/def2-universal-jkfit.gbs \n    atoms 11-15 entry H          line    18 file /group/f97/kraus/miniconda3/envs/psi4-1.4a2.dev923/share/psi4/basis/def2-universal-jkfit.gbs \n\n  ==> Integral Setup <==\n\n  DFHelper Memory: AOs need 0.501 GiB; user supplied 81.755 GiB. Using in-core AOs.\n\n  ==> MemDFJK: Density-Fitted J/K Matrices <==\n\n    J tasked:                   Yes\n    K tasked:                   Yes\n    wK tasked:                   No\n    OpenMP threads:              24\n    Memory [MiB]:             83716\n    Algorithm:                 Core\n    Schwarz Cutoff:           1E-12\n    Mask sparsity (%):       2.5706\n    Fitting Condition:        1E-10\n\n   => Auxiliary Basis Set <=\n\n  Basis Set: (AUG-PCSEG-1 AUX)\n    Blend: DEF2-UNIVERSAL-JKFIT\n    Number of shells: 280\n    Number of basis function: 850\n    Number of Cartesian functions: 1010\n    Spherical Harmonics?: true\n    Max angular momentum: 4\n\n  Cached 100.0% of DFT collocation blocks in 2.064 [GiB].\n\n  Minimum eigenvalue in the overlap matrix is 3.5643311179E-06.\n  Reciprocal condition number of the overlap matrix is 2.2658015546E-07.\n    Using symmetric orthogonalization.\n\n  ==> Pre-Iterations <==\n\n  SCF Guess: Superposition of Atomic Potentials (doi:10.1021/acs.jctc.8b01089).\n\n  ==> SAP guess <==\n\n   => Molecular Quadrature <=\n\n    Radial Scheme          =       TREUTLER\n    Pruning Scheme         =           NONE\n    Nuclear Scheme         =       TREUTLER\n\n    BS radius alpha        =              1\n    Pruning alpha          =              1\n    Radial Points          =             75\n    Spherical Points       =            302\n    Total Points           =         317512\n    Total Blocks           =           2378\n    Max Points             =            256\n    Max Functions          =            265\n    Weights Tolerance      =       1.00E-15\n\n   -------------------------------------------------------\n    Irrep   Nso     Nmo     Nalpha   Nbeta   Ndocc  Nsocc\n   -------------------------------------------------------\n     A        275     275      35      35      35       0\n   -------------------------------------------------------\n    Total     275     275      35      35      35       0\n   -------------------------------------------------------\n\n  ==> Iterations <==\n\n                           Total Energy        Delta E     RMS |[F,P]|\n\n   @DF-RKS iter   1:  -463.32288980008445   -4.63323e+02   8.51502e-03 DIIS\n   @DF-RKS iter   2:  -449.50723656168799    1.38157e+01   1.55938e-02 DIIS\n   @DF-RKS iter   3:  -465.82563798411246   -1.63184e+01   3.42946e-03 DIIS\n   @DF-RKS iter   4:  -466.18401880365684   -3.58381e-01   1.96834e-03 DIIS\n   @DF-RKS iter   5:  -466.31377475603176   -1.29756e-01   4.64994e-04 DIIS\n   @DF-RKS iter   6:  -466.31990910156765   -6.13435e-03   2.27233e-04 DIIS\n   @DF-RKS iter   7:  -466.32175913941484   -1.85004e-03   3.22206e-05 DIIS\n   @DF-RKS iter   8:  -466.32179047240930   -3.13330e-05   1.87398e-05 DIIS\n   @DF-RKS iter   9:  -466.32180381946483   -1.33471e-05   5.08368e-06 DIIS\n   @DF-RKS iter  10:  -466.32180507966848   -1.26020e-06   1.73541e-06 DIIS\n   @DF-RKS iter  11:  -466.32180524873849   -1.69070e-07   6.94457e-07 DIIS\n  Energy and wave function converged.\n\n\n  ==> Post-Iterations <==\n\n    Orbital Energies [Eh]\n    ---------------------\n\n    Doubly Occupied:                                                      \n\n       1A    -14.908279     2A    -14.861820     3A    -14.846171  \n       4A    -14.838196     5A    -14.831801     6A    -10.718353  \n       7A    -10.708054     8A    -10.701508     9A    -10.691501  \n      10A    -10.647735    11A     -1.181927    12A     -1.119846  \n      13A     -1.072691    14A     -1.020970    15A     -0.988668  \n      16A     -0.886179    17A     -0.769867    18A     -0.752883  \n      19A     -0.726738    20A     -0.669775    21A     -0.633400  \n      22A     -0.597091    23A     -0.579211    24A     -0.544088  \n      25A     -0.538949    26A     -0.520953    27A     -0.498923  \n      28A     -0.473367    29A     -0.422780    30A     -0.401776  \n      31A     -0.363493    32A     -0.357211    33A     -0.327134  \n      34A     -0.318265    35A     -0.268262  \n\n    Virtual:                                                              \n\n      36A      0.001822    37A      0.011960    38A      0.016891  \n      39A      0.022109    40A      0.032016    41A      0.040934  \n      42A      0.043107    43A      0.049117    44A      0.059569  \n      45A      0.068474    46A      0.070960    47A      0.075011  \n      48A      0.076821    49A      0.079923    50A      0.083720  \n      51A      0.090452    52A      0.093354    53A      0.105349  \n      54A      0.108167    55A      0.111361    56A      0.115161  \n      57A      0.119180    58A      0.122330    59A      0.127880  \n      60A      0.139139    61A      0.144165    62A      0.161047  \n      63A      0.168302    64A      0.171875    65A      0.172701  \n      66A      0.177961    67A      0.180419    68A      0.189585  \n      69A      0.191059    70A      0.192173    71A      0.196031  \n      72A      0.200667    73A      0.208325    74A      0.210438  \n      75A      0.216660    76A      0.222852    77A      0.228775  \n      78A      0.232405    79A      0.237315    80A      0.244349  \n      81A      0.246780    82A      0.254776    83A      0.261353  \n      84A      0.266539    85A      0.274812    86A      0.275458  \n      87A      0.278623    88A      0.281735    89A      0.285256  \n      90A      0.287452    91A      0.298385    92A      0.305768  \n      93A      0.319129    94A      0.329082    95A      0.331323  \n      96A      0.335249    97A      0.337374    98A      0.339987  \n      99A      0.348206   100A      0.353558   101A      0.361400  \n     102A      0.367665   103A      0.369487   104A      0.372005  \n     105A      0.378595   106A      0.386615   107A      0.397911  \n     108A      0.404204   109A      0.407102   110A      0.423303  \n     111A      0.428479   112A      0.431829   113A      0.436570  \n     114A      0.443836   115A      0.447933   116A      0.453014  \n     117A      0.463096   118A      0.470112   119A      0.482792  \n     120A      0.483982   121A      0.490568   122A      0.501047  \n     123A      0.513029   124A      0.516857   125A      0.517928  \n     126A      0.525257   127A      0.530487   128A      0.546161  \n     129A      0.560164   130A      0.562940   131A      0.574419  \n     132A      0.584883   133A      0.587746   134A      0.602099  \n     135A      0.604067   136A      0.612276   137A      0.615897  \n     138A      0.623947   139A      0.635072   140A      0.642877  \n     141A      0.651532   142A      0.653273   143A      0.662180  \n     144A      0.675516   145A      0.696037   146A      0.702609  \n     147A      0.706521   148A      0.716956   149A      0.728343  \n     150A      0.732379   151A      0.737927   152A      0.739401  \n     153A      0.745884   154A      0.752746   155A      0.769432  \n     156A      0.788338   157A      0.796019   158A      0.801962  \n     159A      0.808064   160A      0.812712   161A      0.824057  \n     162A      0.840876   163A      0.856484   164A      0.884993  \n     165A      0.895277   166A      0.910215   167A      0.916754  \n     168A      0.921869   169A      0.965024   170A      0.993586  \n     171A      1.017407   172A      1.029857   173A      1.037506  \n     174A      1.063770   175A      1.071875   176A      1.086807  \n     177A      1.125112   178A      1.137787   179A      1.164276  \n     180A      1.208899   181A      1.236777   182A      1.257197  \n     183A      1.268450   184A      1.309619   185A      1.318176  \n     186A      1.324675   187A      1.345040   188A      1.354146  \n     189A      1.374212   190A      1.384376   191A      1.448976  \n     192A      1.460703   193A      1.500509   194A      1.513734  \n     195A      1.541923   196A      1.573081   197A      1.580095  \n     198A      1.607837   199A      1.629114   200A      1.657139  \n     201A      1.679270   202A      1.700404   203A      1.701902  \n     204A      1.723170   205A      1.754636   206A      1.779770  \n     207A      1.801180   208A      1.822633   209A      1.834762  \n     210A      1.850293   211A      1.862980   212A      1.870948  \n     213A      1.910382   214A      1.944297   215A      1.960073  \n     216A      2.020805   217A      2.036592   218A      2.053519  \n     219A      2.071099   220A      2.074939   221A      2.087261  \n     222A      2.123916   223A      2.137246   224A      2.145062  \n     225A      2.163073   226A      2.181144   227A      2.189338  \n     228A      2.193727   229A      2.230297   230A      2.265782  \n     231A      2.288017   232A      2.300767   233A      2.311841  \n     234A      2.328001   235A      2.356966   236A      2.380609  \n     237A      2.440901   238A      2.469775   239A      2.473513  \n     240A      2.508337   241A      2.543951   242A      2.565140  \n     243A      2.597592   244A      2.635134   245A      2.648862  \n     246A      2.661895   247A      2.674150   248A      2.689986  \n     249A      2.716175   250A      2.757554   251A      2.775146  \n     252A      2.788299   253A      2.831694   254A      2.854764  \n     255A      2.883026   256A      2.927257   257A      2.957797  \n     258A      2.984278   259A      2.997574   260A      3.053914  \n     261A      3.077319   262A      3.163905   263A      3.188436  \n     264A      3.248076   265A      3.272736   266A      3.304883  \n     267A      3.385560   268A      3.416701   269A      3.450171  \n     270A      3.508095   271A      3.557861   272A      3.606484  \n     273A      3.770616   274A      3.817650   275A      3.947910  \n\n    Final Occupation by Irrep:\n              A \n    DOCC [    35 ]\n\n  @DF-RKS Final Energy:  -466.32180524873849\n\n   => Energetics <=\n\n    Nuclear Repulsion Energy =            501.2235939031376688\n    One-Electron Energy =               -1625.5827124144420850\n    Two-Electron Energy =                 688.4896959647333006\n    DFT Exchange-Correlation Energy =     -30.4397398721674719\n    Empirical Dispersion Energy =          -0.0126428300000000\n    VV10 Nonlocal Energy =                  0.0000000000000000\n    Total Energy =                       -466.3218052487385421\n\nComputation Completed\n\n\nProperties will be evaluated at   0.000000,   0.000000,   0.000000 [a0]\n\nProperties computed using the SCF density matrix\n\n  Nuclear Dipole Moment: [e a0]\n     X:    -0.8453      Y:    -1.3883      Z:    -0.6829\n\n  Electronic Dipole Moment: [e a0]\n     X:     1.5017      Y:     0.6620      Z:     0.3153\n\n  Dipole Moment: [e a0]\n     X:     0.6563      Y:    -0.7262      Z:    -0.3675     Total:     1.0456\n\n  Dipole Moment: [D]\n     X:     1.6682      Y:    -1.8459      Z:    -0.9341     Total:     2.6576\n\n\n*** tstop() called on z049 at Mon May 17 17:19:16 2021\nModule time:\n\tuser time   =     132.83 seconds =       2.21 minutes\n\tsystem time =       9.52 seconds =       0.16 minutes\n\ttotal time  =         10 seconds =       0.17 minutes\nTotal time:\n\tuser time   =     132.83 seconds =       2.21 minutes\n\tsystem time =       9.52 seconds =       0.16 minutes\n\ttotal time  =         10 seconds =       0.17 minutes\n\n*** tstart() called on z049\n*** at Mon May 17 17:19:16 2021\n\n   => Loading Basis Set <=\n\n    Name: (AUG-PCSEG-1 AUX)\n    Role: RIFIT\n    Keyword: DF_BASIS_MP2\n    atoms 1-5   entry C          line   185 file /group/f97/kraus/miniconda3/envs/psi4-1.4a2.dev923/share/psi4/basis/def2-svpd-ri.gbs \n    atoms 6-10  entry N          line   233 file /group/f97/kraus/miniconda3/envs/psi4-1.4a2.dev923/share/psi4/basis/def2-svpd-ri.gbs \n    atoms 11-15 entry H          line    22 file /group/f97/kraus/miniconda3/envs/psi4-1.4a2.dev923/share/psi4/basis/def2-svpd-ri.gbs \n\n\t --------------------------------------------------------\n\t                          DF-MP2                         \n\t      2nd-Order Density-Fitted Moller-Plesset Theory     \n\t              RMP2 Wavefunction,  24 Threads             \n\t                                                         \n\t        Rob Parrish, Justin Turney, Andy Simmonett,      \n\t           Ed Hohenstein, and C. David Sherrill          \n\t --------------------------------------------------------\n\n   => Auxiliary Basis Set <=\n\n  Basis Set: (AUG-PCSEG-1 AUX)\n    Blend: DEF2-SVPD-RI\n    Number of shells: 245\n    Number of basis function: 755\n    Number of Cartesian functions: 875\n    Spherical Harmonics?: true\n    Max angular momentum: 3\n\n\t --------------------------------------------------------\n\t                 NBF =   275, NAUX =   755\n\t --------------------------------------------------------\n\t   CLASS    FOCC     OCC    AOCC    AVIR     VIR    FVIR\n\t   PAIRS      10      35      25     240     240       0\n\t --------------------------------------------------------\n\n\t-----------------------------------------------------------\n\t ==================> DF-MP2 Energies <==================== \n\t-----------------------------------------------------------\n\t Reference Energy          =    -466.3218052487384853 [Eh]\n\t Singles Energy            =      -0.0000000000000000 [Eh]\n\t Same-Spin Energy          =      -0.5242419207748249 [Eh]\n\t Opposite-Spin Energy      =      -1.3422402132739939 [Eh]\n\t Correlation Energy        =      -1.8664821340488187 [Eh]\n\t Total Energy              =    -468.1882873827872800 [Eh]\n\t-----------------------------------------------------------\n\t ================> DF-SCS-MP2 Energies <================== \n\t-----------------------------------------------------------\n\t SCS Same-Spin Scale       =       0.3333333333333333 [-]\n\t SCS Opposite-Spin Scale   =       1.2000000000000000 [-]\n\t SCS Same-Spin Energy      =      -0.1747473069249416 [Eh]\n\t SCS Opposite-Spin Energy  =      -1.6106882559287927 [Eh]\n\t SCS Correlation Energy    =      -1.7854355628537344 [Eh]\n\t SCS Total Energy          =    -468.1072408115921917 [Eh]\n\t-----------------------------------------------------------\n\n\n\n    B2PLYP-D3BJ Energy Summary\n    --------------------------\n    DFT Reference Energy                  =  -466.3218052487384853\n    Scaled MP2 Correlation                =    -0.5039501761931811\n    @Final double-hybrid DFT total energy =  -466.8257554249316854\n\n\n*** tstop() called on z049 at Mon May 17 17:19:18 2021\nModule time:\n\tuser time   =      30.50 seconds =       0.51 minutes\n\tsystem time =       1.55 seconds =       0.03 minutes\n\ttotal time  =          2 seconds =       0.03 minutes\nTotal time:\n\tuser time   =     163.34 seconds =       2.72 minutes\n\tsystem time =      11.07 seconds =       0.18 minutes\n\ttotal time  =         12 seconds =       0.20 minutes\n\n    Psi4 stopped on: Monday, 17 May 2021 05:19PM\n    Psi4 wall time for execution: 0:00:12.29\n\n*** Psi4 exiting successfully. Buy a developer a beer!\n",
 "stderr": null,
 "success": true,
 "error": null,
 "tag": "b2plyp-d3bj aug-pcseg-1 c3a_a"
}