{
 "id": null,
 "schema_name": "qcschema_output",
 "schema_version": 1,
 "molecule": {
  "validated": true,
  "symbols": [
   "C",
   "C",
   "C",
   "C",
   "C",
   "N",
   "N",
   "N",
   "N",
   "N",
   "H",
   "H",
   "H",
   "H",
   "H"
  ],
  "geometry": [
   -2.6005148446510584,
   0.05786205884492528,
   -0.05834799091184591,
   -0.1816654040650379,
   -1.05140717679882,
   0.03991776761196013,
   1.8611285375548743,
   0.6342285271095628,
   0.08527119462294801,
   -0.6465380309276636,
   3.967705412417172,
   0.03235886311012896,
   3.108347780357041,
   -3.3625422282337434,
   0.004012971228262096,
   -2.7857080049459246,
   2.5976539714602467,
   -0.05267881253547342,
   1.7553038745292358,
   3.1645718090975947,
   0.09849927750115343,
   0.6309168298818281,
   -3.543955936277695,
   -0.011104837775400235,
   3.9719526196912684,
   -0.9002290867621937,
   0.08716092074840669,
   -4.769920436676645,
   -1.3273071911156629,
   -0.11126032242466495,
   -0.9092099623663019,
   6.004830175660711,
   0.019130780231924428,
   4.406589628546569,
   -4.938573816865572,
   -0.07157607379005133,
   5.787979426256241,
   -0.31630371399572466,
   -0.04700963415909916,
   -6.351621203684847,
   -0.38811330676312217,
   -0.6366041853019416,
   -4.6414190601455125,
   -3.160341532809756,
   -0.6403836375528572
  ],
  "name": "C5H5N5",
  "molecular_charge": 0.0,
  "molecular_multiplicity": 1,
  "masses": [
   12.0,
   12.0,
   12.0,
   12.0,
   12.0,
   14.00307400443,
   14.00307400443,
   14.00307400443,
   14.00307400443,
   14.00307400443,
   1.00782503223,
   1.00782503223,
   1.00782503223,
   1.00782503223,
   1.00782503223
  ],
  "real": [
   true,
   true,
   true,
   true,
   true,
   true,
   true,
   true,
   true,
   true,
   true,
   true,
   true,
   true,
   true
  ],
  "atom_labels": [
   "",
   "",
   "",
   "",
   "",
   "",
   "",
   "",
   "",
   "",
   "",
   "",
   "",
   "",
   ""
  ],
  "atomic_numbers": [
   6,
   6,
   6,
   6,
   6,
   7,
   7,
   7,
   7,
   7,
   1,
   1,
   1,
   1,
   1
  ],
  "mass_numbers": [
   12,
   12,
   12,
   12,
   12,
   14,
   14,
   14,
   14,
   14,
   1,
   1,
   1,
   1,
   1
  ],
  "fragments": [
   [
    0,
    1,
    2,
    3,
    4,
    5,
    6,
    7,
    8,
    9,
    10,
    11,
    12,
    13,
    14
   ]
  ],
  "fragment_charges": [
   0.0
  ],
  "fragment_multiplicities": [
   1
  ],
  "fix_com": false,
  "fix_orientation": false,
  "provenance": {
   "creator": "QCElemental",
   "version": "v0.19.0",
   "routine": "qcelemental.molparse.from_string"
  }
 },
 "driver": "energy",
 "model": {
  "method": "dsd-blyp-d3bj",
  "basis": "pcseg-1"
 },
 "keywords": {},
 "protocols": {},
 "extras": {
  "qcvars": {
   "2-BODY DISPERSION CORRECTION ENERGY": -0.0159969,
   "CURRENT DIPOLE X": 1.73357936377504,
   "CURRENT DIPOLE Y": -1.8929013911074613,
   "CURRENT DIPOLE Z": -1.0637844883416778,
   "CURRENT ENERGY": -466.53935615689977,
   "CURRENT REFERENCE ENERGY": -465.78331588718277,
   "DFT FUNCTIONAL TOTAL ENERGY": -465.76731898718276,
   "DFT TOTAL ENERGY": -466.53935615689977,
   "DFT VV10 ENERGY": 0.0,
   "DFT XC ENERGY": -19.000533799980207,
   "DISPERSION CORRECTION ENERGY": -0.0159969,
   "DOUBLE-HYBRID CORRECTION ENERGY": -0.7560402697170027,
   "DSD-BLYP-D3BJ DISPERSION CORRECTION ENERGY": -0.0159969,
   "DSD-BLYP-D3BJ DOUBLE-HYBRID CORRECTION ENERGY": -0.7560402697170027,
   "DSD-BLYP-D3BJ TOTAL ENERGY": -466.53935615689977,
   "NUCLEAR REPULSION ENERGY": 501.2235939031376,
   "ONE-ELECTRON ENERGY": -1625.1391923194785,
   "PCM POLARIZATION ENERGY": 0.0,
   "PE ENERGY": 0.0,
   "SCF DIPOLE X": 1.73357936377504,
   "SCF DIPOLE Y": -1.8929013911074613,
   "SCF DIPOLE Z": -1.0637844883416778,
   "SCF ITERATION ENERGY": -465.78331588718277,
   "SCF ITERATIONS": 9.0,
   "SCF TOTAL ENERGY": -465.78331588718277,
   "TWO-ELECTRON ENERGY": 677.1488132291382,
   "XC GRID RADIAL POINTS": 75.0,
   "XC GRID SPHERICAL POINTS": 302.0,
   "XC GRID TOTAL POINTS": 314395.0,
   "CURRENT DIPOLE": [
    0.6820426020394565,
    -0.7447247107185646,
    -0.4185250214664653
   ],
   "SCF DIPOLE": [
    0.6820426020394565,
    -0.7447247107185646,
    -0.4185250214664653
   ]
  }
 },
 "provenance": {
  "creator": "Psi4",
  "version": "1.4a2.dev923",
  "routine": "psi4.schema_runner.run_qcschema",
  "memory": 100.0,
  "username": "ubuntu",
  "wall_time": 11.87065076828003,
  "cpu": "AMD EPYC Processor (with IBPB)",
  "hostname": "bignimbus",
  "qcengine_version": "v0.17.0",
  "nthreads": 16
 },
 "properties": {
  "calcinfo_nbasis": 165,
  "calcinfo_nmo": 165,
  "calcinfo_nalpha": 35,
  "calcinfo_nbeta": 35,
  "calcinfo_natom": 15,
  "nuclear_repulsion_energy": 501.2235939031376,
  "return_energy": -466.53935615689977,
  "scf_one_electron_energy": -1625.1391923194785,
  "scf_two_electron_energy": 677.1488132291382,
  "scf_xc_energy": -19.000533799980207,
  "scf_dispersion_correction_energy": -0.0159969,
  "scf_dipole_moment": [
   0.6820426020394565,
   -0.7447247107185646,
   -0.4185250214664653
  ],
  "scf_total_energy": -465.78331588718277,
  "scf_iterations": 9
 },
 "wavefunction": null,
 "return_result": -466.53935615689977,
 "stdout": "\n    -----------------------------------------------------------------------\n          Psi4: An Open-Source Ab Initio Electronic Structure Package\n                               Psi4 1.4a2.dev923 \n\n                         Git: Rev {master} 5de566e \n\n\n    D. G. A. Smith, L. A. Burns, A. C. Simmonett, R. M. Parrish,\n    M. C. Schieber, R. Galvelis, P. Kraus, H. Kruse, R. Di Remigio,\n    A. Alenaizan, A. M. James, S. Lehtola, J. P. Misiewicz, M. Scheurer,\n    R. A. Shaw, J. B. Schriber, Y. Xie, Z. L. Glick, D. A. Sirianni,\n    J. S. O'Brien, J. M. Waldrop, A. Kumar, E. G. Hohenstein,\n    B. P. Pritchard, B. R. Brooks, H. F. Schaefer III, A. Yu. Sokolov,\n    K. Patkowski, A. E. DePrince III, U. Bozkaya, R. A. King,\n    F. A. Evangelista, J. M. Turney, T. D. Crawford, C. D. Sherrill,\n    J. Chem. Phys. 152(18) 184108 (2020). https://doi.org/10.1063/5.0006002\n\n                            Additional Code Authors\n    E. T. Seidl, C. L. Janssen, E. F. Valeev, M. L. Leininger,\n    J. F. Gonthier, R. M. Richard, H. R. McAlexander, M. Saitow, X. Wang,\n    P. Verma, and M. H. Lechner\n\n             Previous Authors, Complete List of Code Contributors,\n                       and Citations for Specific Modules\n    https://github.com/psi4/psi4/blob/master/codemeta.json\n    https://github.com/psi4/psi4/graphs/contributors\n    http://psicode.org/psi4manual/master/introduction.html#citing-psifour\n\n    -----------------------------------------------------------------------\n\n\n    Psi4 started on: Thursday, 13 May 2021 02:04AM\n\n    Process ID: 2184661\n    Host:       bignimbus\n    PSIDATADIR: /home/ubuntu/pk/Applications/miniconda3/envs/psi4-1.4a2.dev923/share/psi4\n    Memory:     93.1 GiB\n    Threads:    16\n    \n  ==> Input QCSchema <==\n\n--------------------------------------------------------------------------\n{'driver': 'energy',\n 'extras': {},\n 'id': None,\n 'keywords': {},\n 'model': {'basis': 'pcseg-1', 'method': 'dsd-blyp-d3bj'},\n 'molecule': {'atom_labels': ['', '', '', '', '', '', '', '', '', '', '', '', '', '', ''],\n              'atomic_numbers': [6, 6, 6, 6, 6, 7, 7, 7, 7, 7, 1, 1, 1, 1, 1],\n              'fix_com': False,\n              'fix_orientation': False,\n              'fragment_charges': [0.0],\n              'fragment_multiplicities': [1],\n              'fragments': [[0, 1, 2, 3, 4, 5, 6, 7, 8, 9, 10, 11, 12, 13, 14]],\n              'geometry': [-2.600514844651058, 0.0578620588449254, -0.05834799091184806, -0.1816654040650374,\n                           -1.0514071767988198, 0.03991776761195798, 1.8611285375548747, 0.6342285271095629,\n                           0.08527119462294586, -0.6465380309276632, 3.967705412417172, 0.03235886311012681,\n                           3.1083477803570414, -3.3625422282337434, 0.004012971228259943, -2.785708004945924,\n                           2.5976539714602467, -0.05267881253547557, 1.7553038745292362, 3.1645718090975947,\n                           0.09849927750115128, 0.6309168298818285, -3.543955936277695, -0.011104837775402387,\n                           3.971952619691269, -0.9002290867621936, 0.08716092074840454, -4.769920436676644,\n                           -1.3273071911156626, -0.1112603224246671, -0.9092099623663015, 6.004830175660711,\n                           0.019130780231922273, 4.40658962854657, -4.938573816865572, -0.07157607379005348,\n                           5.787979426256242, -0.31630371399572454, -0.04700963415910131, -6.3516212036848465,\n                           -0.38811330676312206, -0.6366041853019437, -4.641419060145512, -3.160341532809756,\n                           -0.6403836375528593],\n              'mass_numbers': [12, 12, 12, 12, 12, 14, 14, 14, 14, 14, 1, 1, 1, 1, 1],\n              'masses': [12.0, 12.0, 12.0, 12.0, 12.0, 14.00307400443, 14.00307400443, 14.00307400443, 14.00307400443,\n                         14.00307400443, 1.00782503223, 1.00782503223, 1.00782503223, 1.00782503223, 1.00782503223],\n              'molecular_charge': 0.0,\n              'molecular_multiplicity': 1,\n              'name': 'C5H5N5',\n              'provenance': {'creator': 'QCElemental',\n                             'routine': 'qcelemental.molparse.from_string',\n                             'version': 'v0.19.0'},\n              'real': [True, True, True, True, True, True, True, True, True, True, True, True, True, True, True],\n              'symbols': ['C', 'C', 'C', 'C', 'C', 'N', 'N', 'N', 'N', 'N', 'H', 'H', 'H', 'H', 'H'],\n              'validated': True},\n 'protocols': {},\n 'provenance': {'creator': 'QCElemental', 'routine': 'qcelemental.models.results', 'version': 'v0.17.0'},\n 'schema_name': 'qcschema_input',\n 'schema_version': 1}\n--------------------------------------------------------------------------\n\nScratch directory: /home/ubuntu/pk/scratch/tmp6pf6_hg2_psi_scratch/\n\n*** tstart() called on bignimbus\n*** at Thu May 13 02:04:28 2021\n\n   => Loading Basis Set <=\n\n    Name: PCSEG-1\n    Role: ORBITAL\n    Keyword: BASIS\n    atoms 1-5   entry C          line    90 file /home/ubuntu/pk/Applications/miniconda3/envs/psi4-1.4a2.dev923/share/psi4/basis/pcseg-1.gbs \n    atoms 6-10  entry N          line   111 file /home/ubuntu/pk/Applications/miniconda3/envs/psi4-1.4a2.dev923/share/psi4/basis/pcseg-1.gbs \n    atoms 11-15 entry H          line    13 file /home/ubuntu/pk/Applications/miniconda3/envs/psi4-1.4a2.dev923/share/psi4/basis/pcseg-1.gbs \n\n   => DSD-BLYP-D3BJ: Empirical Dispersion <=\n\n    Grimme's -D3 (BJ-damping) Dispersion Correction\n    Grimme S.; Ehrlich S.; Goerigk L. (2011), J. Comput. Chem., 32: 1456\n    Parametrisation from:    S. Kozuch, J.M.L. Martin, J. Comp. Chem., 34, 2327-2344, 2013\n\n        s6 =       0.570000\n        s8 =       0.000000\n        a1 =       0.000000\n        a2 =       5.400000\n\n\n         ---------------------------------------------------------\n                                   SCF\n               by Justin Turney, Rob Parrish, Andy Simmonett\n                          and Daniel G. A. Smith\n                              RKS Reference\n                       16 Threads,  95367 MiB Core\n         ---------------------------------------------------------\n\n  ==> Geometry <==\n\n    Molecular point group: c1\n    Full point group: C1\n\n    Geometry (in Bohr), charge = 0, multiplicity = 1:\n\n       Center              X                  Y                   Z               Mass       \n    ------------   -----------------  -----------------  -----------------  -----------------\n         C           -2.600514844651     0.057862058845    -0.058347990912    12.000000000000\n         C           -0.181665404065    -1.051407176799     0.039917767612    12.000000000000\n         C            1.861128537555     0.634228527110     0.085271194623    12.000000000000\n         C           -0.646538030928     3.967705412417     0.032358863110    12.000000000000\n         C            3.108347780357    -3.362542228234     0.004012971228    12.000000000000\n         N           -2.785708004946     2.597653971460    -0.052678812535    14.003074004430\n         N            1.755303874529     3.164571809098     0.098499277501    14.003074004430\n         N            0.630916829882    -3.543955936278    -0.011104837775    14.003074004430\n         N            3.971952619691    -0.900229086762     0.087160920748    14.003074004430\n         N           -4.769920436677    -1.327307191116    -0.111260322425    14.003074004430\n         H           -0.909209962366     6.004830175661     0.019130780232     1.007825032230\n         H            4.406589628547    -4.938573816866    -0.071576073790     1.007825032230\n         H            5.787979426256    -0.316303713996    -0.047009634159     1.007825032230\n         H           -6.351621203685    -0.388113306763    -0.636604185302     1.007825032230\n         H           -4.641419060146    -3.160341532810    -0.640383637553     1.007825032230\n\n  Running in c1 symmetry.\n\n  Rotational constants: A =      0.07881  B =      0.05206  C =      0.03137 [cm^-1]\n  Rotational constants: A =   2362.65971  B =   1560.84141  C =    940.48329 [MHz]\n  Nuclear repulsion =  501.223593903137612\n\n  Charge       = 0\n  Multiplicity = 1\n  Electrons    = 70\n  Nalpha       = 35\n  Nbeta        = 35\n\n  ==> Algorithm <==\n\n  SCF Algorithm Type is DF.\n  DIIS enabled.\n  MOM disabled.\n  Fractional occupation disabled.\n  Guess Type is SAD.\n  Energy threshold   = 1.00e-06\n  Density threshold  = 1.00e-06\n  Integral threshold = 0.00e+00\n\n  ==> Primary Basis <==\n\n  Basis Set: PCSEG-1\n    Blend: PCSEG-1\n    Number of shells: 75\n    Number of basis function: 165\n    Number of Cartesian functions: 175\n    Spherical Harmonics?: true\n    Max angular momentum: 2\n\n  ==> DFT Potential <==\n\n   => Composite Functional: DSD-BLYP-D3BJ <= \n\n    DSD-BLYP-D3BJ Dispersion-corrected SCS Double Hybrid XC Functional\n\n    S. Kozuch, J.M.L. Martin, J. Comp. Chem., 34, 2327-2344, 2013\n\n\n    Deriv               =              1\n    GGA                 =           TRUE\n    Meta                =          FALSE\n\n    Exchange Hybrid     =           TRUE\n    MP2 Hybrid          =           TRUE\n\n   => Exchange Functionals <=\n\n    0.2900     XC_GGA_X_B88\n\n   => Exact (HF) Exchange <=\n\n    0.7100               HF \n\n   => Correlation Functionals <=\n\n    0.5400     XC_GGA_C_LYP\n\n   => MP2 Correlation <=\n\n    MP2 SCS Hybrid      =           TRUE\n    MP2 OS Alpha        =       0.470000\n    MP2 SS Alpha        =       0.400000\n\n   => LibXC Density Thresholds  <==\n\n    XC_GGA_C_LYP:  1.00E-32 \n    XC_GGA_X_B88:  1.00E-25 \n\n   => Molecular Quadrature <=\n\n    Radial Scheme          =       TREUTLER\n    Pruning Scheme         =           NONE\n    Nuclear Scheme         =       TREUTLER\n\n    BS radius alpha        =              1\n    Pruning alpha          =              1\n    Radial Points          =             75\n    Spherical Points       =            302\n    Total Points           =         314395\n    Total Blocks           =           2354\n    Max Points             =            256\n    Max Functions          =            155\n    Weights Tolerance      =       1.00E-15\n\n   => Loading Basis Set <=\n\n    Name: (PCSEG-1 AUX)\n    Role: JKFIT\n    Keyword: DF_BASIS_SCF\n    atoms 1-5   entry C          line   198 file /home/ubuntu/pk/Applications/miniconda3/envs/psi4-1.4a2.dev923/share/psi4/basis/def2-universal-jkfit.gbs \n    atoms 6-10  entry N          line   258 file /home/ubuntu/pk/Applications/miniconda3/envs/psi4-1.4a2.dev923/share/psi4/basis/def2-universal-jkfit.gbs \n    atoms 11-15 entry H          line    18 file /home/ubuntu/pk/Applications/miniconda3/envs/psi4-1.4a2.dev923/share/psi4/basis/def2-universal-jkfit.gbs \n\n  ==> Integral Setup <==\n\n  DFHelper Memory: AOs need 0.174 GiB; user supplied 68.825 GiB. Using in-core AOs.\n\n  ==> MemDFJK: Density-Fitted J/K Matrices <==\n\n    J tasked:                   Yes\n    K tasked:                   Yes\n    wK tasked:                   No\n    OpenMP threads:              16\n    Memory [MiB]:             70477\n    Algorithm:                 Core\n    Schwarz Cutoff:           1E-12\n    Mask sparsity (%):       7.1405\n    Fitting Condition:        1E-10\n\n   => Auxiliary Basis Set <=\n\n  Basis Set: (PCSEG-1 AUX)\n    Blend: DEF2-UNIVERSAL-JKFIT\n    Number of shells: 280\n    Number of basis function: 850\n    Number of Cartesian functions: 1010\n    Spherical Harmonics?: true\n    Max angular momentum: 4\n\n  Cached 100.0% of DFT collocation blocks in 1.024 [GiB].\n\n  Minimum eigenvalue in the overlap matrix is 1.0417057685E-03.\n  Reciprocal condition number of the overlap matrix is 1.7063086071E-04.\n    Using symmetric orthogonalization.\n\n  ==> Pre-Iterations <==\n\n  SCF Guess: Superposition of Atomic Densities via on-the-fly atomic UHF (no occupation information).\n\n   -------------------------\n    Irrep   Nso     Nmo    \n   -------------------------\n     A        165     165 \n   -------------------------\n    Total     165     165\n   -------------------------\n\n  ==> Iterations <==\n\n                           Total Energy        Delta E     RMS |[F,P]|\n\n   @DF-RKS iter SAD:  -465.67181163898863   -4.65672e+02   0.00000e+00 \n   @DF-RKS iter   1:  -465.54383749181642    1.27974e-01   4.16399e-03 DIIS\n   @DF-RKS iter   2:  -465.68291202697600   -1.39075e-01   2.92926e-03 DIIS\n   @DF-RKS iter   3:  -465.77995985870643   -9.70478e-02   4.83370e-04 DIIS\n   @DF-RKS iter   4:  -465.78251922699928   -2.55937e-03   2.43747e-04 DIIS\n   @DF-RKS iter   5:  -465.78326359542700   -7.44368e-04   5.58189e-05 DIIS\n   @DF-RKS iter   6:  -465.78330913250932   -4.55371e-05   1.68591e-05 DIIS\n   @DF-RKS iter   7:  -465.78331488208028   -5.74957e-06   6.37267e-06 DIIS\n   @DF-RKS iter   8:  -465.78331570908909   -8.27009e-07   2.64172e-06 DIIS\n   @DF-RKS iter   9:  -465.78331588718277   -1.78094e-07   8.52467e-07 DIIS\n  Energy and wave function converged.\n\n\n  ==> Post-Iterations <==\n\n    Orbital Energies [Eh]\n    ---------------------\n\n    Doubly Occupied:                                                      \n\n       1A    -15.184953     2A    -15.135763     3A    -15.120837  \n       4A    -15.112086     5A    -15.105425     6A    -10.958203  \n       7A    -10.946433     8A    -10.940568     9A    -10.931100  \n      10A    -10.881791    11A     -1.262592    12A     -1.197740  \n      13A     -1.146731    14A     -1.092340    15A     -1.059702  \n      16A     -0.952601    17A     -0.825840    18A     -0.808194  \n      19A     -0.779245    20A     -0.717805    21A     -0.678848  \n      22A     -0.641555    23A     -0.622715    24A     -0.586220  \n      25A     -0.582172    26A     -0.564044    27A     -0.541604  \n      28A     -0.511076    29A     -0.456898    30A     -0.443155  \n      31A     -0.402763    32A     -0.389107    33A     -0.364397  \n      34A     -0.345485    35A     -0.290926  \n\n    Virtual:                                                              \n\n      36A      0.052068    37A      0.082512    38A      0.102621  \n      39A      0.122743    40A      0.125535    41A      0.145275  \n      42A      0.159314    43A      0.178212    44A      0.266786  \n      45A      0.280454    46A      0.289141    47A      0.304810  \n      48A      0.338444    49A      0.352304    50A      0.382871  \n      51A      0.412208    52A      0.435803    53A      0.446503  \n      54A      0.461804    55A      0.508566    56A      0.513779  \n      57A      0.546217    58A      0.570178    59A      0.576025  \n      60A      0.609142    61A      0.615369    62A      0.627392  \n      63A      0.634787    64A      0.647183    65A      0.665221  \n      66A      0.674436    67A      0.713477    68A      0.715496  \n      69A      0.720534    70A      0.783540    71A      0.796215  \n      72A      0.814365    73A      0.823204    74A      0.840591  \n      75A      0.843913    76A      0.873921    77A      0.880398  \n      78A      0.897080    79A      0.916097    80A      0.934403  \n      81A      0.958024    82A      0.964972    83A      0.977705  \n      84A      0.998432    85A      1.014266    86A      1.063563  \n      87A      1.082876    88A      1.085991    89A      1.156429  \n      90A      1.195109    91A      1.250957    92A      1.294167  \n      93A      1.297913    94A      1.346022    95A      1.395773  \n      96A      1.443075    97A      1.467696    98A      1.524544  \n      99A      1.533184   100A      1.558745   101A      1.578397  \n     102A      1.583845   103A      1.586212   104A      1.645150  \n     105A      1.652072   106A      1.713299   107A      1.734862  \n     108A      1.786619   109A      1.802462   110A      1.857556  \n     111A      1.945958   112A      1.955792   113A      1.995734  \n     114A      2.014131   115A      2.020668   116A      2.066186  \n     117A      2.077673   118A      2.107325   119A      2.126100  \n     120A      2.139262   121A      2.165387   122A      2.190069  \n     123A      2.254399   124A      2.287653   125A      2.303935  \n     126A      2.321492   127A      2.345646   128A      2.357154  \n     129A      2.389416   130A      2.399375   131A      2.452319  \n     132A      2.495921   133A      2.508989   134A      2.514389  \n     135A      2.574814   136A      2.588954   137A      2.628082  \n     138A      2.632458   139A      2.662605   140A      2.672027  \n     141A      2.678549   142A      2.735130   143A      2.782826  \n     144A      2.819252   145A      2.833826   146A      2.854692  \n     147A      2.895013   148A      2.916627   149A      2.928890  \n     150A      2.961529   151A      2.991344   152A      3.034066  \n     153A      3.060855   154A      3.125720   155A      3.163226  \n     156A      3.246382   157A      3.266841   158A      3.344274  \n     159A      3.415141   160A      3.445674   161A      3.511521  \n     162A      3.565239   163A      3.771376   164A      3.807794  \n     165A      3.901706  \n\n    Final Occupation by Irrep:\n              A \n    DOCC [    35 ]\n\n  @DF-RKS Final Energy:  -465.78331588718277\n\n   => Energetics <=\n\n    Nuclear Repulsion Energy =            501.2235939031376120\n    One-Electron Energy =               -1625.1391923194785250\n    Two-Electron Energy =                 677.1488132291382271\n    DFT Exchange-Correlation Energy =     -19.0005337999802073\n    Empirical Dispersion Energy =          -0.0159969000000000\n    VV10 Nonlocal Energy =                  0.0000000000000000\n    Total Energy =                       -465.7833158871827663\n\nComputation Completed\n\n\nProperties will be evaluated at   0.000000,   0.000000,   0.000000 [a0]\n\nProperties computed using the SCF density matrix\n\n  Nuclear Dipole Moment: [e a0]\n     X:    -0.8453      Y:    -1.3883      Z:    -0.6829\n\n  Electronic Dipole Moment: [e a0]\n     X:     1.5274      Y:     0.6436      Z:     0.2643\n\n  Dipole Moment: [e a0]\n     X:     0.6820      Y:    -0.7447      Z:    -0.4185     Total:     1.0931\n\n  Dipole Moment: [D]\n     X:     1.7336      Y:    -1.8929      Z:    -1.0638     Total:     2.7785\n\n\n*** tstop() called on bignimbus at Thu May 13 02:04:34 2021\nModule time:\n\tuser time   =      56.34 seconds =       0.94 minutes\n\tsystem time =       2.79 seconds =       0.05 minutes\n\ttotal time  =          6 seconds =       0.10 minutes\nTotal time:\n\tuser time   =      56.34 seconds =       0.94 minutes\n\tsystem time =       2.79 seconds =       0.05 minutes\n\ttotal time  =          6 seconds =       0.10 minutes\n\n*** tstart() called on bignimbus\n*** at Thu May 13 02:04:34 2021\n\n   => Loading Basis Set <=\n\n    Name: (PCSEG-1 AUX)\n    Role: RIFIT\n    Keyword: DF_BASIS_MP2\n    atoms 1-5   entry C          line   153 file /home/ubuntu/pk/Applications/miniconda3/envs/psi4-1.4a2.dev923/share/psi4/basis/def2-svp-ri.gbs \n    atoms 6-10  entry N          line   193 file /home/ubuntu/pk/Applications/miniconda3/envs/psi4-1.4a2.dev923/share/psi4/basis/def2-svp-ri.gbs \n    atoms 11-15 entry H          line    22 file /home/ubuntu/pk/Applications/miniconda3/envs/psi4-1.4a2.dev923/share/psi4/basis/def2-svp-ri.gbs \n\n\t --------------------------------------------------------\n\t                          DF-MP2                         \n\t      2nd-Order Density-Fitted Moller-Plesset Theory     \n\t              RMP2 Wavefunction,  16 Threads             \n\t                                                         \n\t        Rob Parrish, Justin Turney, Andy Simmonett,      \n\t           Ed Hohenstein, and C. David Sherrill          \n\t --------------------------------------------------------\n\n   => Auxiliary Basis Set <=\n\n  Basis Set: (PCSEG-1 AUX)\n    Blend: DEF2-SVP-RI\n    Number of shells: 190\n    Number of basis function: 550\n    Number of Cartesian functions: 625\n    Spherical Harmonics?: true\n    Max angular momentum: 3\n\n\t --------------------------------------------------------\n\t                 NBF =   165, NAUX =   550\n\t --------------------------------------------------------\n\t   CLASS    FOCC     OCC    AOCC    AVIR     VIR    FVIR\n\t   PAIRS       0      35      35     130     130       0\n\t --------------------------------------------------------\n\n\t-----------------------------------------------------------\n\t ==================> DF-MP2 Energies <==================== \n\t-----------------------------------------------------------\n\t Reference Energy          =    -465.7833158871827663 [Eh]\n\t Singles Energy            =      -0.0000000000000000 [Eh]\n\t Same-Spin Energy          =      -0.4689724755843673 [Eh]\n\t Opposite-Spin Energy      =      -1.2094708074111824 [Eh]\n\t Correlation Energy        =      -1.6784432829955498 [Eh]\n\t Total Energy              =    -467.4617591701783113 [Eh]\n\t-----------------------------------------------------------\n\t ================> DF-SCS-MP2 Energies <================== \n\t-----------------------------------------------------------\n\t SCS Same-Spin Scale       =       0.4000000000000000 [-]\n\t SCS Opposite-Spin Scale   =       0.4700000000000000 [-]\n\t SCS Same-Spin Energy      =      -0.1875889902337469 [Eh]\n\t SCS Opposite-Spin Energy  =      -0.5684512794832557 [Eh]\n\t SCS Correlation Energy    =      -1.6076891274215415 [Eh]\n\t SCS Total Energy          =    -467.3910050146043318 [Eh]\n\t-----------------------------------------------------------\n\n\n\n    DSD-BLYP-D3BJ Energy Summary\n    ----------------------------\n    DFT Reference Energy                  =  -465.7833158871827663\n    Scaled MP2 Correlation                =    -0.7560402697170027\n    @Final double-hybrid DFT total energy =  -466.5393561568997711\n\n\n*** tstop() called on bignimbus at Thu May 13 02:04:35 2021\nModule time:\n\tuser time   =      14.15 seconds =       0.24 minutes\n\tsystem time =       0.41 seconds =       0.01 minutes\n\ttotal time  =          1 seconds =       0.02 minutes\nTotal time:\n\tuser time   =      70.51 seconds =       1.18 minutes\n\tsystem time =       3.20 seconds =       0.05 minutes\n\ttotal time  =          7 seconds =       0.12 minutes\n\n    Psi4 stopped on: Thursday, 13 May 2021 02:04AM\n    Psi4 wall time for execution: 0:00:07.15\n\n*** Psi4 exiting successfully. Buy a developer a beer!\n",
 "stderr": null,
 "success": true,
 "error": null,
 "tag": "dsd-blyp-d3bj pcseg-1 c3a_a"
}