{
 "id": null,
 "schema_name": "qcschema_output",
 "schema_version": 1,
 "molecule": {
  "validated": true,
  "symbols": [
   "C",
   "C",
   "C",
   "C",
   "C",
   "N",
   "N",
   "N",
   "N",
   "N",
   "H",
   "H",
   "H",
   "H",
   "H"
  ],
  "geometry": [
   -2.6005148446510584,
   0.05786205884492528,
   -0.05834799091184591,
   -0.1816654040650379,
   -1.05140717679882,
   0.03991776761196013,
   1.8611285375548743,
   0.6342285271095628,
   0.08527119462294801,
   -0.6465380309276636,
   3.967705412417172,
   0.03235886311012896,
   3.108347780357041,
   -3.3625422282337434,
   0.004012971228262096,
   -2.7857080049459246,
   2.5976539714602467,
   -0.05267881253547342,
   1.7553038745292358,
   3.1645718090975947,
   0.09849927750115343,
   0.6309168298818281,
   -3.543955936277695,
   -0.011104837775400235,
   3.9719526196912684,
   -0.9002290867621937,
   0.08716092074840669,
   -4.769920436676645,
   -1.3273071911156629,
   -0.11126032242466495,
   -0.9092099623663019,
   6.004830175660711,
   0.019130780231924428,
   4.406589628546569,
   -4.938573816865572,
   -0.07157607379005133,
   5.787979426256241,
   -0.31630371399572466,
   -0.04700963415909916,
   -6.351621203684847,
   -0.38811330676312217,
   -0.6366041853019416,
   -4.6414190601455125,
   -3.160341532809756,
   -0.6403836375528572
  ],
  "name": "C5H5N5",
  "molecular_charge": 0.0,
  "molecular_multiplicity": 1,
  "masses": [
   12.0,
   12.0,
   12.0,
   12.0,
   12.0,
   14.00307400443,
   14.00307400443,
   14.00307400443,
   14.00307400443,
   14.00307400443,
   1.00782503223,
   1.00782503223,
   1.00782503223,
   1.00782503223,
   1.00782503223
  ],
  "real": [
   true,
   true,
   true,
   true,
   true,
   true,
   true,
   true,
   true,
   true,
   true,
   true,
   true,
   true,
   true
  ],
  "atom_labels": [
   "",
   "",
   "",
   "",
   "",
   "",
   "",
   "",
   "",
   "",
   "",
   "",
   "",
   "",
   ""
  ],
  "atomic_numbers": [
   6,
   6,
   6,
   6,
   6,
   7,
   7,
   7,
   7,
   7,
   1,
   1,
   1,
   1,
   1
  ],
  "mass_numbers": [
   12,
   12,
   12,
   12,
   12,
   14,
   14,
   14,
   14,
   14,
   1,
   1,
   1,
   1,
   1
  ],
  "fragments": [
   [
    0,
    1,
    2,
    3,
    4,
    5,
    6,
    7,
    8,
    9,
    10,
    11,
    12,
    13,
    14
   ]
  ],
  "fragment_charges": [
   0.0
  ],
  "fragment_multiplicities": [
   1
  ],
  "fix_com": false,
  "fix_orientation": false,
  "provenance": {
   "creator": "QCElemental",
   "version": "v0.19.0",
   "routine": "qcelemental.molparse.from_string"
  }
 },
 "driver": "energy",
 "model": {
  "method": "dsd-pbep86-nl",
  "basis": "def2-svpd"
 },
 "keywords": {
  "guess": "SAP"
 },
 "protocols": {},
 "extras": {
  "qcvars": {
   "CURRENT DIPOLE X": 1.7077958027133706,
   "CURRENT DIPOLE Y": -1.8573273703687847,
   "CURRENT DIPOLE Z": -0.9601561726161598,
   "CURRENT ENERGY": -465.9649163365495,
   "CURRENT REFERENCE ENERGY": -465.196981073839,
   "DFT FUNCTIONAL TOTAL ENERGY": -465.19698107383897,
   "DFT TOTAL ENERGY": -465.9649163365495,
   "DFT VV10 ENERGY": 0.09386618090884413,
   "DFT XC ENERGY": -19.899861777293687,
   "DOUBLE-HYBRID CORRECTION ENERGY": -0.7679352627104696,
   "DSD-PBEP86-NL DOUBLE-HYBRID CORRECTION ENERGY": -0.7679352627104696,
   "DSD-PBEP86-NL TOTAL ENERGY": -465.9649163365495,
   "NUCLEAR REPULSION ENERGY": 501.2235939031376,
   "ONE-ELECTRON ENERGY": -1624.689283692707,
   "PCM POLARIZATION ENERGY": 0.0,
   "PE ENERGY": 0.0,
   "SCF DIPOLE X": 1.7077958027133706,
   "SCF DIPOLE Y": -1.8573273703687847,
   "SCF DIPOLE Z": -0.9601561726161598,
   "SCF ITERATION ENERGY": -465.196981073839,
   "SCF ITERATIONS": 11.0,
   "SCF TOTAL ENERGY": -465.196981073839,
   "TWO-ELECTRON ENERGY": 678.0747043121152,
   "XC GRID RADIAL POINTS": 75.0,
   "XC GRID SPHERICAL POINTS": 302.0,
   "XC GRID TOTAL POINTS": 316517.0,
   "CURRENT DIPOLE": [
    0.6718985685767773,
    -0.7307288140341592,
    -0.3777545049390372
   ],
   "SCF DIPOLE": [
    0.6718985685767773,
    -0.7307288140341592,
    -0.3777545049390372
   ]
  }
 },
 "provenance": {
  "creator": "Psi4",
  "version": "1.4a2.dev923",
  "routine": "psi4.schema_runner.run_qcschema",
  "cpu": "AMD EPYC Processor (with IBPB)",
  "memory": 200.0,
  "username": "ubuntu",
  "wall_time": 32.98855996131897,
  "hostname": "bignimbus",
  "nthreads": 32,
  "qcengine_version": "v0.17.0"
 },
 "properties": {
  "calcinfo_nbasis": 240,
  "calcinfo_nmo": 240,
  "calcinfo_nalpha": 35,
  "calcinfo_nbeta": 35,
  "calcinfo_natom": 15,
  "nuclear_repulsion_energy": 501.2235939031376,
  "return_energy": -465.9649163365495,
  "scf_one_electron_energy": -1624.689283692707,
  "scf_two_electron_energy": 678.0747043121152,
  "scf_vv10_energy": 0.09386618090884413,
  "scf_xc_energy": -19.899861777293687,
  "scf_dipole_moment": [
   0.6718985685767773,
   -0.7307288140341592,
   -0.3777545049390372
  ],
  "scf_total_energy": -465.196981073839,
  "scf_iterations": 11
 },
 "wavefunction": null,
 "return_result": -465.9649163365495,
 "stdout": "\n    -----------------------------------------------------------------------\n          Psi4: An Open-Source Ab Initio Electronic Structure Package\n                               Psi4 1.4a2.dev923 \n\n                         Git: Rev {master} 5de566e \n\n\n    D. G. A. Smith, L. A. Burns, A. C. Simmonett, R. M. Parrish,\n    M. C. Schieber, R. Galvelis, P. Kraus, H. Kruse, R. Di Remigio,\n    A. Alenaizan, A. M. James, S. Lehtola, J. P. Misiewicz, M. Scheurer,\n    R. A. Shaw, J. B. Schriber, Y. Xie, Z. L. Glick, D. A. Sirianni,\n    J. S. O'Brien, J. M. Waldrop, A. Kumar, E. G. Hohenstein,\n    B. P. Pritchard, B. R. Brooks, H. F. Schaefer III, A. Yu. Sokolov,\n    K. Patkowski, A. E. DePrince III, U. Bozkaya, R. A. King,\n    F. A. Evangelista, J. M. Turney, T. D. Crawford, C. D. Sherrill,\n    J. Chem. Phys. 152(18) 184108 (2020). https://doi.org/10.1063/5.0006002\n\n                            Additional Code Authors\n    E. T. Seidl, C. L. Janssen, E. F. Valeev, M. L. Leininger,\n    J. F. Gonthier, R. M. Richard, H. R. McAlexander, M. Saitow, X. Wang,\n    P. Verma, and M. H. Lechner\n\n             Previous Authors, Complete List of Code Contributors,\n                       and Citations for Specific Modules\n    https://github.com/psi4/psi4/blob/master/codemeta.json\n    https://github.com/psi4/psi4/graphs/contributors\n    http://psicode.org/psi4manual/master/introduction.html#citing-psifour\n\n    -----------------------------------------------------------------------\n\n\n    Psi4 started on: Monday, 17 May 2021 03:33AM\n\n    Process ID: 2481354\n    Host:       bignimbus\n    PSIDATADIR: /home/ubuntu/pk/Applications/miniconda3/envs/psi4-1.4a2.dev923/share/psi4\n    Memory:     186.3 GiB\n    Threads:    32\n    \n  ==> Input QCSchema <==\n\n--------------------------------------------------------------------------\n{'driver': 'energy',\n 'extras': {},\n 'id': None,\n 'keywords': {'guess': 'SAP'},\n 'model': {'basis': 'def2-svpd', 'method': 'dsd-pbep86-nl'},\n 'molecule': {'atom_labels': ['', '', '', '', '', '', '', '', '', '', '', '', '', '', ''],\n              'atomic_numbers': [6, 6, 6, 6, 6, 7, 7, 7, 7, 7, 1, 1, 1, 1, 1],\n              'fix_com': False,\n              'fix_orientation': False,\n              'fragment_charges': [0.0],\n              'fragment_multiplicities': [1],\n              'fragments': [[0, 1, 2, 3, 4, 5, 6, 7, 8, 9, 10, 11, 12, 13, 14]],\n              'geometry': [-2.600514844651058, 0.0578620588449254, -0.05834799091184806, -0.1816654040650374,\n                           -1.0514071767988198, 0.03991776761195798, 1.8611285375548747, 0.6342285271095629,\n                           0.08527119462294586, -0.6465380309276632, 3.967705412417172, 0.03235886311012681,\n                           3.1083477803570414, -3.3625422282337434, 0.004012971228259943, -2.785708004945924,\n                           2.5976539714602467, -0.05267881253547557, 1.7553038745292362, 3.1645718090975947,\n                           0.09849927750115128, 0.6309168298818285, -3.543955936277695, -0.011104837775402387,\n                           3.971952619691269, -0.9002290867621936, 0.08716092074840454, -4.769920436676644,\n                           -1.3273071911156626, -0.1112603224246671, -0.9092099623663015, 6.004830175660711,\n                           0.019130780231922273, 4.40658962854657, -4.938573816865572, -0.07157607379005348,\n                           5.787979426256242, -0.31630371399572454, -0.04700963415910131, -6.3516212036848465,\n                           -0.38811330676312206, -0.6366041853019437, -4.641419060145512, -3.160341532809756,\n                           -0.6403836375528593],\n              'mass_numbers': [12, 12, 12, 12, 12, 14, 14, 14, 14, 14, 1, 1, 1, 1, 1],\n              'masses': [12.0, 12.0, 12.0, 12.0, 12.0, 14.00307400443, 14.00307400443, 14.00307400443, 14.00307400443,\n                         14.00307400443, 1.00782503223, 1.00782503223, 1.00782503223, 1.00782503223, 1.00782503223],\n              'molecular_charge': 0.0,\n              'molecular_multiplicity': 1,\n              'name': 'C5H5N5',\n              'provenance': {'creator': 'QCElemental',\n                             'routine': 'qcelemental.molparse.from_string',\n                             'version': 'v0.19.0'},\n              'real': [True, True, True, True, True, True, True, True, True, True, True, True, True, True, True],\n              'symbols': ['C', 'C', 'C', 'C', 'C', 'N', 'N', 'N', 'N', 'N', 'H', 'H', 'H', 'H', 'H'],\n              'validated': True},\n 'protocols': {},\n 'provenance': {'creator': 'QCElemental', 'routine': 'qcelemental.models.results', 'version': 'v0.17.0'},\n 'schema_name': 'qcschema_input',\n 'schema_version': 1}\n--------------------------------------------------------------------------\n\nScratch directory: /home/ubuntu/pk/scratch/tmptx3wpw2z_psi_scratch/\n\n*** tstart() called on bignimbus\n*** at Mon May 17 03:33:28 2021\n\n   => Loading Basis Set <=\n\n    Name: DEF2-SVPD\n    Role: ORBITAL\n    Keyword: BASIS\n    atoms 1-5   entry C          line   101 file /home/ubuntu/pk/Applications/miniconda3/envs/psi4-1.4a2.dev923/share/psi4/basis/def2-svpd.gbs \n    atoms 6-10  entry N          line   125 file /home/ubuntu/pk/Applications/miniconda3/envs/psi4-1.4a2.dev923/share/psi4/basis/def2-svpd.gbs \n    atoms 11-15 entry H          line    14 file /home/ubuntu/pk/Applications/miniconda3/envs/psi4-1.4a2.dev923/share/psi4/basis/def2-svpd.gbs \n\n   => DSD-PBEP86-NL: Empirical Dispersion <=\n\n    Grimme's -NL (DFT plus VV10 correlation) \n    Hujo, W.; Grimme, S; (2011), J. Chem. Theory Comput.; 7:3866\n    Parametrisation from:    M. K. Kesharwani, A. Karton, J.M. L. Martin, J. Chem. Theory Comput. 12, 444-454, 2016\n\n         b =      12.800000\n         c =       0.009300\n\n\n         ---------------------------------------------------------\n                                   SCF\n               by Justin Turney, Rob Parrish, Andy Simmonett\n                          and Daniel G. A. Smith\n                              RKS Reference\n                       32 Threads, 190734 MiB Core\n         ---------------------------------------------------------\n\n  ==> Geometry <==\n\n    Molecular point group: c1\n    Full point group: C1\n\n    Geometry (in Bohr), charge = 0, multiplicity = 1:\n\n       Center              X                  Y                   Z               Mass       \n    ------------   -----------------  -----------------  -----------------  -----------------\n         C           -2.600514844651     0.057862058845    -0.058347990912    12.000000000000\n         C           -0.181665404065    -1.051407176799     0.039917767612    12.000000000000\n         C            1.861128537555     0.634228527110     0.085271194623    12.000000000000\n         C           -0.646538030928     3.967705412417     0.032358863110    12.000000000000\n         C            3.108347780357    -3.362542228234     0.004012971228    12.000000000000\n         N           -2.785708004946     2.597653971460    -0.052678812535    14.003074004430\n         N            1.755303874529     3.164571809098     0.098499277501    14.003074004430\n         N            0.630916829882    -3.543955936278    -0.011104837775    14.003074004430\n         N            3.971952619691    -0.900229086762     0.087160920748    14.003074004430\n         N           -4.769920436677    -1.327307191116    -0.111260322425    14.003074004430\n         H           -0.909209962366     6.004830175661     0.019130780232     1.007825032230\n         H            4.406589628547    -4.938573816866    -0.071576073790     1.007825032230\n         H            5.787979426256    -0.316303713996    -0.047009634159     1.007825032230\n         H           -6.351621203685    -0.388113306763    -0.636604185302     1.007825032230\n         H           -4.641419060146    -3.160341532810    -0.640383637553     1.007825032230\n\n  Running in c1 symmetry.\n\n  Rotational constants: A =      0.07881  B =      0.05206  C =      0.03137 [cm^-1]\n  Rotational constants: A =   2362.65971  B =   1560.84141  C =    940.48329 [MHz]\n  Nuclear repulsion =  501.223593903137612\n\n  Charge       = 0\n  Multiplicity = 1\n  Electrons    = 70\n  Nalpha       = 35\n  Nbeta        = 35\n\n  ==> Algorithm <==\n\n  SCF Algorithm Type is DF.\n  DIIS enabled.\n  MOM disabled.\n  Fractional occupation disabled.\n  Guess Type is SAP.\n  Energy threshold   = 1.00e-06\n  Density threshold  = 1.00e-06\n  Integral threshold = 0.00e+00\n\n  ==> Primary Basis <==\n\n  Basis Set: DEF2-SVPD\n    Blend: DEF2-SVPD\n    Number of shells: 100\n    Number of basis function: 240\n    Number of Cartesian functions: 260\n    Spherical Harmonics?: true\n    Max angular momentum: 2\n\n  ==> DFT Potential <==\n\n   => Composite Functional: DSD-PBEP86-NL <= \n\n    DSD-PBEP86-NL (D3BJ parameters) VV10 SCS Double Hybrid XC Functional\n\n    S. Kozuch, J.M.L. Martin, J. Comp. Chem., 34, 2327-2344, 2013\n\n\n    Deriv               =              1\n    GGA                 =           TRUE\n    Meta                =          FALSE\n\n    Exchange Hybrid     =           TRUE\n    MP2 Hybrid          =           TRUE\n\n   => Exchange Functionals <=\n\n    0.3100     XC_GGA_X_PBE\n\n   => Exact (HF) Exchange <=\n\n    0.6900               HF \n\n   => Correlation Functionals <=\n\n    0.4400     XC_GGA_C_P86\n\n   => MP2 Correlation <=\n\n    MP2 SCS Hybrid      =           TRUE\n    MP2 OS Alpha        =       0.520000\n    MP2 SS Alpha        =       0.220000\n\n   => LibXC Density Thresholds  <==\n\n    XC_GGA_C_P86:  1.00E-25 \n    XC_GGA_X_PBE:  1.00E-32 \n\n   => VV10 Non-Local Parameters <=\n\n    VV10 B              =     1.2800E+01\n    VV10 C              =     9.3000E-03\n\n   => Molecular Quadrature <=\n\n    Radial Scheme          =       TREUTLER\n    Pruning Scheme         =           NONE\n    Nuclear Scheme         =       TREUTLER\n\n    BS radius alpha        =              1\n    Pruning alpha          =              1\n    Radial Points          =             75\n    Spherical Points       =            302\n    Total Points           =         316516\n    Total Blocks           =           2365\n    Max Points             =            256\n    Max Functions          =            233\n    Weights Tolerance      =       1.00E-15\n\n   => Loading Basis Set <=\n\n    Name: (DEF2-SVPD AUX)\n    Role: JKFIT\n    Keyword: DF_BASIS_SCF\n    atoms 1-5   entry C          line   198 file /home/ubuntu/pk/Applications/miniconda3/envs/psi4-1.4a2.dev923/share/psi4/basis/def2-universal-jkfit.gbs \n    atoms 6-10  entry N          line   258 file /home/ubuntu/pk/Applications/miniconda3/envs/psi4-1.4a2.dev923/share/psi4/basis/def2-universal-jkfit.gbs \n    atoms 11-15 entry H          line    18 file /home/ubuntu/pk/Applications/miniconda3/envs/psi4-1.4a2.dev923/share/psi4/basis/def2-universal-jkfit.gbs \n\n  ==> Integral Setup <==\n\n  DFHelper Memory: AOs need 0.384 GiB; user supplied 137.969 GiB. Using in-core AOs.\n\n  ==> MemDFJK: Density-Fitted J/K Matrices <==\n\n    J tasked:                   Yes\n    K tasked:                   Yes\n    wK tasked:                   No\n    OpenMP threads:              32\n    Memory [MiB]:            141280\n    Algorithm:                 Core\n    Schwarz Cutoff:           1E-12\n    Mask sparsity (%):       3.0486\n    Fitting Condition:        1E-10\n\n   => Auxiliary Basis Set <=\n\n  Basis Set: (DEF2-SVPD AUX)\n    Blend: DEF2-UNIVERSAL-JKFIT\n    Number of shells: 280\n    Number of basis function: 850\n    Number of Cartesian functions: 1010\n    Spherical Harmonics?: true\n    Max angular momentum: 4\n\n  Cached 100.0% of DFT collocation blocks in 1.729 [GiB].\n\n  Minimum eigenvalue in the overlap matrix is 4.4162638354E-05.\n  Reciprocal condition number of the overlap matrix is 3.8276336757E-06.\n    Using symmetric orthogonalization.\n\n  ==> Pre-Iterations <==\n\n  SCF Guess: Superposition of Atomic Potentials (doi:10.1021/acs.jctc.8b01089).\n\n  ==> SAP guess <==\n\n   => Molecular Quadrature <=\n\n    Radial Scheme          =       TREUTLER\n    Pruning Scheme         =           NONE\n    Nuclear Scheme         =       TREUTLER\n\n    BS radius alpha        =              1\n    Pruning alpha          =              1\n    Radial Points          =             75\n    Spherical Points       =            302\n    Total Points           =         316517\n    Total Blocks           =           2365\n    Max Points             =            256\n    Max Functions          =            233\n    Weights Tolerance      =       1.00E-15\n\n   -------------------------------------------------------\n    Irrep   Nso     Nmo     Nalpha   Nbeta   Ndocc  Nsocc\n   -------------------------------------------------------\n     A        240     240      35      35      35       0\n   -------------------------------------------------------\n    Total     240     240      35      35      35       0\n   -------------------------------------------------------\n\n  ==> Iterations <==\n\n                           Total Energy        Delta E     RMS |[F,P]|\n\n   @DF-RKS iter   1:  -462.16897523454452   -4.62169e+02   9.87912e-03 DIIS\n   @DF-RKS iter   2:  -455.52920477762046    6.63977e+00   1.51402e-02 DIIS\n   @DF-RKS iter   3:  -464.81120350703270   -9.28200e+00   3.51120e-03 DIIS\n   @DF-RKS iter   4:  -465.13370815843166   -3.22505e-01   1.53293e-03 DIIS\n   @DF-RKS iter   5:  -465.19344418855428   -5.97360e-02   3.41747e-04 DIIS\n   @DF-RKS iter   6:  -465.19626925430418   -2.82507e-03   1.53802e-04 DIIS\n   @DF-RKS iter   7:  -465.19694016339008   -6.70909e-04   3.07935e-05 DIIS\n   @DF-RKS iter   8:  -465.19697006578616   -2.99024e-05   1.64513e-05 DIIS\n   @DF-RKS iter   9:  -465.19697979323337   -9.72745e-06   4.94095e-06 DIIS\n   @DF-RKS iter  10:  -465.19698090067180   -1.10744e-06   1.70268e-06 DIIS\n   @DF-RKS iter  11:  -465.19698107383903   -1.73167e-07   5.59275e-07 DIIS\n  Energy and wave function converged.\n\n\n  ==> Post-Iterations <==\n\n    Orbital Energies [Eh]\n    ---------------------\n\n    Doubly Occupied:                                                      \n\n       1A    -15.158844     2A    -15.110267     3A    -15.095082  \n       4A    -15.085894     5A    -15.079783     6A    -10.927642  \n       7A    -10.917763     8A    -10.911062     9A    -10.901213  \n      10A    -10.854746    11A     -1.238087    12A     -1.173096  \n      13A     -1.123001    14A     -1.068409    15A     -1.035269  \n      16A     -0.930057    17A     -0.809898    18A     -0.792933  \n      19A     -0.765685    20A     -0.709118    21A     -0.670640  \n      22A     -0.632383    23A     -0.615502    24A     -0.580953  \n      25A     -0.574273    26A     -0.554444    27A     -0.532987  \n      28A     -0.506392    29A     -0.452614    30A     -0.432073  \n      31A     -0.394001    32A     -0.384529    33A     -0.357494  \n      34A     -0.340904    35A     -0.287184  \n\n    Virtual:                                                              \n\n      36A      0.045883    37A      0.065965    38A      0.076463  \n      39A      0.087743    40A      0.102344    41A      0.112349  \n      42A      0.115538    43A      0.121084    44A      0.152671  \n      45A      0.167158    46A      0.183284    47A      0.187729  \n      48A      0.200148    49A      0.214579    50A      0.227056  \n      51A      0.232587    52A      0.246136    53A      0.250115  \n      54A      0.251225    55A      0.259088    56A      0.278725  \n      57A      0.286537    58A      0.304163    59A      0.317214  \n      60A      0.321573    61A      0.330540    62A      0.338102  \n      63A      0.343579    64A      0.350063    65A      0.358426  \n      66A      0.365498    67A      0.371877    68A      0.374257  \n      69A      0.383415    70A      0.392118    71A      0.397327  \n      72A      0.403559    73A      0.411504    74A      0.418142  \n      75A      0.427394    76A      0.432322    77A      0.436799  \n      78A      0.443960    79A      0.445025    80A      0.446965  \n      81A      0.459313    82A      0.470425    83A      0.487933  \n      84A      0.491524    85A      0.498224    86A      0.506783  \n      87A      0.510324    88A      0.524788    89A      0.536996  \n      90A      0.547530    91A      0.552921    92A      0.560874  \n      93A      0.577410    94A      0.580572    95A      0.591356  \n      96A      0.624166    97A      0.626473    98A      0.636893  \n      99A      0.644421   100A      0.653780   101A      0.675192  \n     102A      0.689152   103A      0.693026   104A      0.696150  \n     105A      0.706570   106A      0.710451   107A      0.722214  \n     108A      0.737674   109A      0.744190   110A      0.755038  \n     111A      0.764628   112A      0.769666   113A      0.777687  \n     114A      0.791256   115A      0.799450   116A      0.815088  \n     117A      0.822597   118A      0.831140   119A      0.839077  \n     120A      0.845762   121A      0.866223   122A      0.867131  \n     123A      0.872596   124A      0.889127   125A      0.904648  \n     126A      0.914865   127A      0.938164   128A      0.941428  \n     129A      0.957716   130A      0.983821   131A      1.005196  \n     132A      1.020419   133A      1.024879   134A      1.063254  \n     135A      1.078857   136A      1.123104   137A      1.130639  \n     138A      1.139672   139A      1.176206   140A      1.182042  \n     141A      1.208853   142A      1.220422   143A      1.237734  \n     144A      1.264222   145A      1.278213   146A      1.295577  \n     147A      1.319864   148A      1.326338   149A      1.335950  \n     150A      1.346518   151A      1.353994   152A      1.381952  \n     153A      1.397360   154A      1.422822   155A      1.432327  \n     156A      1.447632   157A      1.455773   158A      1.489460  \n     159A      1.531871   160A      1.576071   161A      1.603419  \n     162A      1.658473   163A      1.687783   164A      1.700570  \n     165A      1.708613   166A      1.732703   167A      1.738624  \n     168A      1.749536   169A      1.763777   170A      1.796787  \n     171A      1.843595   172A      1.851486   173A      1.866088  \n     174A      1.875821   175A      1.904730   176A      1.930255  \n     177A      1.939847   178A      1.961508   179A      1.966195  \n     180A      1.976515   181A      1.985342   182A      2.003675  \n     183A      2.033238   184A      2.041438   185A      2.048830  \n     186A      2.066411   187A      2.097600   188A      2.132674  \n     189A      2.140653   190A      2.163864   191A      2.190922  \n     192A      2.223143   193A      2.251350   194A      2.256220  \n     195A      2.271979   196A      2.273986   197A      2.292579  \n     198A      2.308199   199A      2.318000   200A      2.338666  \n     201A      2.367644   202A      2.407710   203A      2.450568  \n     204A      2.483760   205A      2.523234   206A      2.550582  \n     207A      2.567929   208A      2.612310   209A      2.658067  \n     210A      2.695206   211A      2.718267   212A      2.770600  \n     213A      2.782844   214A      2.795759   215A      2.820228  \n     216A      2.847216   217A      2.869623   218A      2.940881  \n     219A      2.981114   220A      3.004370   221A      3.024627  \n     222A      3.053062   223A      3.073056   224A      3.103903  \n     225A      3.150017   226A      3.205147   227A      3.257427  \n     228A      3.319311   229A      3.350488   230A      3.365831  \n     231A      3.446125   232A      3.481143   233A      3.494521  \n     234A      3.543271   235A      3.634432   236A      3.668829  \n     237A      3.694792   238A      3.864730   239A      3.909549  \n     240A      3.964064  \n\n    Final Occupation by Irrep:\n              A \n    DOCC [    35 ]\n\n  @DF-RKS Final Energy:  -465.19698107383903\n\n   => Energetics <=\n\n    Nuclear Repulsion Energy =            501.2235939031376120\n    One-Electron Energy =               -1624.6892836927070221\n    Two-Electron Energy =                 678.0747043121151592\n    DFT Exchange-Correlation Energy =     -19.8998617772936868\n    Empirical Dispersion Energy =           0.0000000000000000\n    VV10 Nonlocal Energy =                  0.0938661809088441\n    Total Energy =                       -465.1969810738389697\n\nComputation Completed\n\n\nProperties will be evaluated at   0.000000,   0.000000,   0.000000 [a0]\n\nProperties computed using the SCF density matrix\n\n  Nuclear Dipole Moment: [e a0]\n     X:    -0.8453      Y:    -1.3883      Z:    -0.6829\n\n  Electronic Dipole Moment: [e a0]\n     X:     1.5172      Y:     0.6576      Z:     0.3051\n\n  Dipole Moment: [e a0]\n     X:     0.6719      Y:    -0.7307      Z:    -0.3778     Total:     1.0621\n\n  Dipole Moment: [D]\n     X:     1.7078      Y:    -1.8573      Z:    -0.9602     Total:     2.6997\n\n\n*** tstop() called on bignimbus at Mon May 17 03:33:51 2021\nModule time:\n\tuser time   =     662.94 seconds =      11.05 minutes\n\tsystem time =       8.73 seconds =       0.15 minutes\n\ttotal time  =         23 seconds =       0.38 minutes\nTotal time:\n\tuser time   =     662.94 seconds =      11.05 minutes\n\tsystem time =       8.73 seconds =       0.15 minutes\n\ttotal time  =         23 seconds =       0.38 minutes\n\n*** tstart() called on bignimbus\n*** at Mon May 17 03:33:51 2021\n\n   => Loading Basis Set <=\n\n    Name: (DEF2-SVPD AUX)\n    Role: RIFIT\n    Keyword: DF_BASIS_MP2\n    atoms 1-5   entry C          line   185 file /home/ubuntu/pk/Applications/miniconda3/envs/psi4-1.4a2.dev923/share/psi4/basis/def2-svpd-ri.gbs \n    atoms 6-10  entry N          line   233 file /home/ubuntu/pk/Applications/miniconda3/envs/psi4-1.4a2.dev923/share/psi4/basis/def2-svpd-ri.gbs \n    atoms 11-15 entry H          line    22 file /home/ubuntu/pk/Applications/miniconda3/envs/psi4-1.4a2.dev923/share/psi4/basis/def2-svpd-ri.gbs \n\n\t --------------------------------------------------------\n\t                          DF-MP2                         \n\t      2nd-Order Density-Fitted Moller-Plesset Theory     \n\t              RMP2 Wavefunction,  32 Threads             \n\t                                                         \n\t        Rob Parrish, Justin Turney, Andy Simmonett,      \n\t           Ed Hohenstein, and C. David Sherrill          \n\t --------------------------------------------------------\n\n   => Auxiliary Basis Set <=\n\n  Basis Set: (DEF2-SVPD AUX)\n    Blend: DEF2-SVPD-RI\n    Number of shells: 245\n    Number of basis function: 755\n    Number of Cartesian functions: 875\n    Spherical Harmonics?: true\n    Max angular momentum: 3\n\n\t --------------------------------------------------------\n\t                 NBF =   240, NAUX =   755\n\t --------------------------------------------------------\n\t   CLASS    FOCC     OCC    AOCC    AVIR     VIR    FVIR\n\t   PAIRS       0      35      35     205     205       0\n\t --------------------------------------------------------\n\n\t-----------------------------------------------------------\n\t ==================> DF-MP2 Energies <==================== \n\t-----------------------------------------------------------\n\t Reference Energy          =    -465.1969810738390265 [Eh]\n\t Singles Energy            =      -0.0000000000000000 [Eh]\n\t Same-Spin Energy          =      -0.4926040552131093 [Eh]\n\t Opposite-Spin Energy      =      -1.2683891741607414 [Eh]\n\t Correlation Energy        =      -1.7609932293738506 [Eh]\n\t Total Energy              =    -466.9579743032128931 [Eh]\n\t-----------------------------------------------------------\n\t ================> DF-SCS-MP2 Energies <================== \n\t-----------------------------------------------------------\n\t SCS Same-Spin Scale       =       0.2200000000000000 [-]\n\t SCS Opposite-Spin Scale   =       0.5200000000000000 [-]\n\t SCS Same-Spin Energy      =      -0.1083728921468841 [Eh]\n\t SCS Opposite-Spin Energy  =      -0.6595623705635856 [Eh]\n\t SCS Correlation Energy    =      -1.6862683607305926 [Eh]\n\t SCS Total Energy          =    -466.8832494345696205 [Eh]\n\t-----------------------------------------------------------\n\n\n\n    DSD-PBEP86-NL Energy Summary\n    ----------------------------\n    DFT Reference Energy                  =  -465.1969810738390265\n    Scaled MP2 Correlation                =    -0.7679352627104696\n    @Final double-hybrid DFT total energy =  -465.9649163365494928\n\n\n*** tstop() called on bignimbus at Mon May 17 03:33:54 2021\nModule time:\n\tuser time   =      45.81 seconds =       0.76 minutes\n\tsystem time =       1.92 seconds =       0.03 minutes\n\ttotal time  =          3 seconds =       0.05 minutes\nTotal time:\n\tuser time   =     708.75 seconds =      11.81 minutes\n\tsystem time =      10.65 seconds =       0.18 minutes\n\ttotal time  =         26 seconds =       0.43 minutes\n\n    Psi4 stopped on: Monday, 17 May 2021 03:33AM\n    Psi4 wall time for execution: 0:00:25.67\n\n*** Psi4 exiting successfully. Buy a developer a beer!\n",
 "stderr": null,
 "success": true,
 "error": null,
 "tag": "dsd-pbep86-nl def2-svpd c3a_a"
}