{
 "id": null,
 "schema_name": "qcschema_output",
 "schema_version": 1,
 "molecule": {
  "validated": true,
  "symbols": [
   "C",
   "C",
   "C",
   "C",
   "C",
   "N",
   "N",
   "N",
   "N",
   "N",
   "H",
   "H",
   "H",
   "H",
   "H"
  ],
  "geometry": [
   -2.6005148446510584,
   0.05786205884492528,
   -0.05834799091184591,
   -0.1816654040650379,
   -1.05140717679882,
   0.03991776761196013,
   1.8611285375548743,
   0.6342285271095628,
   0.08527119462294801,
   -0.6465380309276636,
   3.967705412417172,
   0.03235886311012896,
   3.108347780357041,
   -3.3625422282337434,
   0.004012971228262096,
   -2.7857080049459246,
   2.5976539714602467,
   -0.05267881253547342,
   1.7553038745292358,
   3.1645718090975947,
   0.09849927750115343,
   0.6309168298818281,
   -3.543955936277695,
   -0.011104837775400235,
   3.9719526196912684,
   -0.9002290867621937,
   0.08716092074840669,
   -4.769920436676645,
   -1.3273071911156629,
   -0.11126032242466495,
   -0.9092099623663019,
   6.004830175660711,
   0.019130780231924428,
   4.406589628546569,
   -4.938573816865572,
   -0.07157607379005133,
   5.787979426256241,
   -0.31630371399572466,
   -0.04700963415909916,
   -6.351621203684847,
   -0.38811330676312217,
   -0.6366041853019416,
   -4.6414190601455125,
   -3.160341532809756,
   -0.6403836375528572
  ],
  "name": "C5H5N5",
  "molecular_charge": 0.0,
  "molecular_multiplicity": 1,
  "masses": [
   12.0,
   12.0,
   12.0,
   12.0,
   12.0,
   14.00307400443,
   14.00307400443,
   14.00307400443,
   14.00307400443,
   14.00307400443,
   1.00782503223,
   1.00782503223,
   1.00782503223,
   1.00782503223,
   1.00782503223
  ],
  "real": [
   true,
   true,
   true,
   true,
   true,
   true,
   true,
   true,
   true,
   true,
   true,
   true,
   true,
   true,
   true
  ],
  "atom_labels": [
   "",
   "",
   "",
   "",
   "",
   "",
   "",
   "",
   "",
   "",
   "",
   "",
   "",
   "",
   ""
  ],
  "atomic_numbers": [
   6,
   6,
   6,
   6,
   6,
   7,
   7,
   7,
   7,
   7,
   1,
   1,
   1,
   1,
   1
  ],
  "mass_numbers": [
   12,
   12,
   12,
   12,
   12,
   14,
   14,
   14,
   14,
   14,
   1,
   1,
   1,
   1,
   1
  ],
  "fragments": [
   [
    0,
    1,
    2,
    3,
    4,
    5,
    6,
    7,
    8,
    9,
    10,
    11,
    12,
    13,
    14
   ]
  ],
  "fragment_charges": [
   0.0
  ],
  "fragment_multiplicities": [
   1
  ],
  "fix_com": false,
  "fix_orientation": false,
  "provenance": {
   "creator": "QCElemental",
   "version": "v0.19.0",
   "routine": "qcelemental.molparse.from_string"
  }
 },
 "driver": "energy",
 "model": {
  "method": "b97m-v",
  "basis": "pcseg-2"
 },
 "keywords": {},
 "protocols": {},
 "extras": {
  "qcvars": {
   "CURRENT DIPOLE X": 1.4739004705252625,
   "CURRENT DIPOLE Y": -1.9190764497713109,
   "CURRENT DIPOLE Z": -0.9119024701646746,
   "CURRENT ENERGY": -467.451389448272,
   "CURRENT REFERENCE ENERGY": -467.451389448272,
   "DFT FUNCTIONAL TOTAL ENERGY": -467.451389448272,
   "DFT TOTAL ENERGY": -467.451389448272,
   "DFT VV10 ENERGY": 0.26648590059683164,
   "DFT XC ENERGY": -63.885415510219566,
   "NUCLEAR REPULSION ENERGY": 501.2235939031376,
   "ONE-ELECTRON ENERGY": -1626.5907911276418,
   "PCM POLARIZATION ENERGY": 0.0,
   "PE ENERGY": 0.0,
   "SCF DIPOLE X": 1.4739004705252625,
   "SCF DIPOLE Y": -1.9190764497713109,
   "SCF DIPOLE Z": -0.9119024701646746,
   "SCF ITERATION ENERGY": -467.451389448272,
   "SCF ITERATIONS": 10.0,
   "SCF TOTAL ENERGY": -467.451389448272,
   "TWO-ELECTRON ENERGY": 721.534737385855,
   "XC GRID RADIAL POINTS": 75.0,
   "XC GRID SPHERICAL POINTS": 302.0,
   "XC GRID TOTAL POINTS": 316061.0,
   "CURRENT DIPOLE": [
    0.5798770642234516,
    -0.7550227711896766,
    -0.35877003761913234
   ],
   "SCF DIPOLE": [
    0.5798770642234516,
    -0.7550227711896766,
    -0.35877003761913234
   ]
  }
 },
 "provenance": {
  "creator": "Psi4",
  "version": "1.4a2.dev923",
  "routine": "psi4.schema_runner.run_qcschema",
  "hostname": "bignimbus",
  "qcengine_version": "v0.17.0",
  "username": "ubuntu",
  "wall_time": 41.00586223602295,
  "nthreads": 16,
  "memory": 256.0,
  "cpu": "AMD EPYC Processor (with IBPB)"
 },
 "properties": {
  "calcinfo_nbasis": 370,
  "calcinfo_nmo": 370,
  "calcinfo_nalpha": 35,
  "calcinfo_nbeta": 35,
  "calcinfo_natom": 15,
  "nuclear_repulsion_energy": 501.2235939031376,
  "return_energy": -467.451389448272,
  "scf_one_electron_energy": -1626.5907911276418,
  "scf_two_electron_energy": 721.534737385855,
  "scf_vv10_energy": 0.26648590059683164,
  "scf_xc_energy": -63.885415510219566,
  "scf_dipole_moment": [
   0.5798770642234516,
   -0.7550227711896766,
   -0.35877003761913234
  ],
  "scf_total_energy": -467.451389448272,
  "scf_iterations": 10
 },
 "wavefunction": null,
 "return_result": -467.451389448272,
 "stdout": "\n    -----------------------------------------------------------------------\n          Psi4: An Open-Source Ab Initio Electronic Structure Package\n                               Psi4 1.4a2.dev923 \n\n                         Git: Rev {master} 5de566e \n\n\n    D. G. A. Smith, L. A. Burns, A. C. Simmonett, R. M. Parrish,\n    M. C. Schieber, R. Galvelis, P. Kraus, H. Kruse, R. Di Remigio,\n    A. Alenaizan, A. M. James, S. Lehtola, J. P. Misiewicz, M. Scheurer,\n    R. A. Shaw, J. B. Schriber, Y. Xie, Z. L. Glick, D. A. Sirianni,\n    J. S. O'Brien, J. M. Waldrop, A. Kumar, E. G. Hohenstein,\n    B. P. Pritchard, B. R. Brooks, H. F. Schaefer III, A. Yu. Sokolov,\n    K. Patkowski, A. E. DePrince III, U. Bozkaya, R. A. King,\n    F. A. Evangelista, J. M. Turney, T. D. Crawford, C. D. Sherrill,\n    J. Chem. Phys. 152(18) 184108 (2020). https://doi.org/10.1063/5.0006002\n\n                            Additional Code Authors\n    E. T. Seidl, C. L. Janssen, E. F. Valeev, M. L. Leininger,\n    J. F. Gonthier, R. M. Richard, H. R. McAlexander, M. Saitow, X. Wang,\n    P. Verma, and M. H. Lechner\n\n             Previous Authors, Complete List of Code Contributors,\n                       and Citations for Specific Modules\n    https://github.com/psi4/psi4/blob/master/codemeta.json\n    https://github.com/psi4/psi4/graphs/contributors\n    http://psicode.org/psi4manual/master/introduction.html#citing-psifour\n\n    -----------------------------------------------------------------------\n\n\n    Psi4 started on: Sunday, 25 April 2021 07:19AM\n\n    Process ID: 3982858\n    Host:       bignimbus\n    PSIDATADIR: /home/ubuntu/pk/Applications/miniconda3/envs/psi4-1.4a2.dev923/share/psi4\n    Memory:     238.4 GiB\n    Threads:    16\n    \n  ==> Input QCSchema <==\n\n--------------------------------------------------------------------------\n{'driver': 'energy',\n 'extras': {},\n 'id': None,\n 'keywords': {},\n 'model': {'basis': 'pcseg-2', 'method': 'b97m-v'},\n 'molecule': {'atom_labels': ['', '', '', '', '', '', '', '', '', '', '', '', '', '', ''],\n              'atomic_numbers': [6, 6, 6, 6, 6, 7, 7, 7, 7, 7, 1, 1, 1, 1, 1],\n              'fix_com': False,\n              'fix_orientation': False,\n              'fragment_charges': [0.0],\n              'fragment_multiplicities': [1],\n              'fragments': [[0, 1, 2, 3, 4, 5, 6, 7, 8, 9, 10, 11, 12, 13, 14]],\n              'geometry': [-2.600514844651058, 0.0578620588449254, -0.05834799091184806, -0.1816654040650374,\n                           -1.0514071767988198, 0.03991776761195798, 1.8611285375548747, 0.6342285271095629,\n                           0.08527119462294586, -0.6465380309276632, 3.967705412417172, 0.03235886311012681,\n                           3.1083477803570414, -3.3625422282337434, 0.004012971228259943, -2.785708004945924,\n                           2.5976539714602467, -0.05267881253547557, 1.7553038745292362, 3.1645718090975947,\n                           0.09849927750115128, 0.6309168298818285, -3.543955936277695, -0.011104837775402387,\n                           3.971952619691269, -0.9002290867621936, 0.08716092074840454, -4.769920436676644,\n                           -1.3273071911156626, -0.1112603224246671, -0.9092099623663015, 6.004830175660711,\n                           0.019130780231922273, 4.40658962854657, -4.938573816865572, -0.07157607379005348,\n                           5.787979426256242, -0.31630371399572454, -0.04700963415910131, -6.3516212036848465,\n                           -0.38811330676312206, -0.6366041853019437, -4.641419060145512, -3.160341532809756,\n                           -0.6403836375528593],\n              'mass_numbers': [12, 12, 12, 12, 12, 14, 14, 14, 14, 14, 1, 1, 1, 1, 1],\n              'masses': [12.0, 12.0, 12.0, 12.0, 12.0, 14.00307400443, 14.00307400443, 14.00307400443, 14.00307400443,\n                         14.00307400443, 1.00782503223, 1.00782503223, 1.00782503223, 1.00782503223, 1.00782503223],\n              'molecular_charge': 0.0,\n              'molecular_multiplicity': 1,\n              'name': 'C5H5N5',\n              'provenance': {'creator': 'QCElemental',\n                             'routine': 'qcelemental.molparse.from_string',\n                             'version': 'v0.19.0'},\n              'real': [True, True, True, True, True, True, True, True, True, True, True, True, True, True, True],\n              'symbols': ['C', 'C', 'C', 'C', 'C', 'N', 'N', 'N', 'N', 'N', 'H', 'H', 'H', 'H', 'H'],\n              'validated': True},\n 'protocols': {},\n 'provenance': {'creator': 'QCElemental', 'routine': 'qcelemental.models.results', 'version': 'v0.17.0'},\n 'schema_name': 'qcschema_input',\n 'schema_version': 1}\n--------------------------------------------------------------------------\n\nScratch directory: /home/ubuntu/pk/scratch/tmpx4_s_baw_psi_scratch/\n\n*** tstart() called on bignimbus\n*** at Sun Apr 25 07:19:14 2021\n\n   => Loading Basis Set <=\n\n    Name: PCSEG-2\n    Role: ORBITAL\n    Keyword: BASIS\n    atoms 1-5   entry C          line   129 file /home/ubuntu/pk/Applications/miniconda3/envs/psi4-1.4a2.dev923/share/psi4/basis/pcseg-2.gbs \n    atoms 6-10  entry N          line   161 file /home/ubuntu/pk/Applications/miniconda3/envs/psi4-1.4a2.dev923/share/psi4/basis/pcseg-2.gbs \n    atoms 11-15 entry H          line    13 file /home/ubuntu/pk/Applications/miniconda3/envs/psi4-1.4a2.dev923/share/psi4/basis/pcseg-2.gbs \n\n\n         ---------------------------------------------------------\n                                   SCF\n               by Justin Turney, Rob Parrish, Andy Simmonett\n                          and Daniel G. A. Smith\n                              RKS Reference\n                       16 Threads, 244140 MiB Core\n         ---------------------------------------------------------\n\n  ==> Geometry <==\n\n    Molecular point group: c1\n    Full point group: C1\n\n    Geometry (in Bohr), charge = 0, multiplicity = 1:\n\n       Center              X                  Y                   Z               Mass       \n    ------------   -----------------  -----------------  -----------------  -----------------\n         C           -2.600514844651     0.057862058845    -0.058347990912    12.000000000000\n         C           -0.181665404065    -1.051407176799     0.039917767612    12.000000000000\n         C            1.861128537555     0.634228527110     0.085271194623    12.000000000000\n         C           -0.646538030928     3.967705412417     0.032358863110    12.000000000000\n         C            3.108347780357    -3.362542228234     0.004012971228    12.000000000000\n         N           -2.785708004946     2.597653971460    -0.052678812535    14.003074004430\n         N            1.755303874529     3.164571809098     0.098499277501    14.003074004430\n         N            0.630916829882    -3.543955936278    -0.011104837775    14.003074004430\n         N            3.971952619691    -0.900229086762     0.087160920748    14.003074004430\n         N           -4.769920436677    -1.327307191116    -0.111260322425    14.003074004430\n         H           -0.909209962366     6.004830175661     0.019130780232     1.007825032230\n         H            4.406589628547    -4.938573816866    -0.071576073790     1.007825032230\n         H            5.787979426256    -0.316303713996    -0.047009634159     1.007825032230\n         H           -6.351621203685    -0.388113306763    -0.636604185302     1.007825032230\n         H           -4.641419060146    -3.160341532810    -0.640383637553     1.007825032230\n\n  Running in c1 symmetry.\n\n  Rotational constants: A =      0.07881  B =      0.05206  C =      0.03137 [cm^-1]\n  Rotational constants: A =   2362.65971  B =   1560.84141  C =    940.48329 [MHz]\n  Nuclear repulsion =  501.223593903137612\n\n  Charge       = 0\n  Multiplicity = 1\n  Electrons    = 70\n  Nalpha       = 35\n  Nbeta        = 35\n\n  ==> Algorithm <==\n\n  SCF Algorithm Type is DF.\n  DIIS enabled.\n  MOM disabled.\n  Fractional occupation disabled.\n  Guess Type is SAD.\n  Energy threshold   = 1.00e-06\n  Density threshold  = 1.00e-06\n  Integral threshold = 0.00e+00\n\n  ==> Primary Basis <==\n\n  Basis Set: PCSEG-2\n    Blend: PCSEG-2\n    Number of shells: 130\n    Number of basis function: 370\n    Number of Cartesian functions: 425\n    Spherical Harmonics?: true\n    Max angular momentum: 3\n\n  ==> DFT Potential <==\n\n   => Composite Functional: B97M-V <= \n\n    B97M-V GGA Exchange-Correlation Functional\n\n    N. Mardirossian and M. Head-Gordon, J. Chem. Phys. 142, 074111 (2015)\n\n    Deriv               =              1\n    GGA                 =           TRUE\n    Meta                =           TRUE\n\n    Exchange Hybrid     =          FALSE\n    MP2 Hybrid          =          FALSE\n\n   => Exchange-Correlation Functionals <=\n\n    1.0000   B97M-V exchange-correlation functional\n\n   => LibXC Density Thresholds  <==\n\n    XC_MGGA_XC_B97M_V:  1.00E-23 \n\n   => VV10 Non-Local Parameters <=\n\n    VV10 B              =     6.0000E+00\n    VV10 C              =     1.0000E-02\n\n   => Molecular Quadrature <=\n\n    Radial Scheme          =       TREUTLER\n    Pruning Scheme         =           NONE\n    Nuclear Scheme         =       TREUTLER\n\n    BS radius alpha        =              1\n    Pruning alpha          =              1\n    Radial Points          =             75\n    Spherical Points       =            302\n    Total Points           =         316061\n    Total Blocks           =           2364\n    Max Points             =            256\n    Max Functions          =            337\n    Weights Tolerance      =       1.00E-15\n\n   => Loading Basis Set <=\n\n    Name: (PCSEG-2 AUX)\n    Role: JKFIT\n    Keyword: DF_BASIS_SCF\n    atoms 1-5   entry C          line   198 file /home/ubuntu/pk/Applications/miniconda3/envs/psi4-1.4a2.dev923/share/psi4/basis/def2-universal-jkfit.gbs \n    atoms 6-10  entry N          line   258 file /home/ubuntu/pk/Applications/miniconda3/envs/psi4-1.4a2.dev923/share/psi4/basis/def2-universal-jkfit.gbs \n    atoms 11-15 entry H          line    18 file /home/ubuntu/pk/Applications/miniconda3/envs/psi4-1.4a2.dev923/share/psi4/basis/def2-universal-jkfit.gbs \n\n  ==> Integral Setup <==\n\n  DFHelper Memory: AOs need 0.826 GiB; user supplied 173.488 GiB. Using in-core AOs.\n\n  ==> MemDFJK: Density-Fitted J/K Matrices <==\n\n    J tasked:                   Yes\n    K tasked:                    No\n    wK tasked:                   No\n    OpenMP threads:              16\n    Memory [MiB]:            177651\n    Algorithm:                 Core\n    Schwarz Cutoff:           1E-12\n    Mask sparsity (%):      10.3828\n    Fitting Condition:        1E-10\n\n   => Auxiliary Basis Set <=\n\n  Basis Set: (PCSEG-2 AUX)\n    Blend: DEF2-UNIVERSAL-JKFIT\n    Number of shells: 280\n    Number of basis function: 850\n    Number of Cartesian functions: 1010\n    Spherical Harmonics?: true\n    Max angular momentum: 4\n\n  Cached 100.0% of DFT collocation blocks in 5.326 [GiB].\n\n  Minimum eigenvalue in the overlap matrix is 5.7667941850E-05.\n  Reciprocal condition number of the overlap matrix is 5.5752892124E-06.\n    Using symmetric orthogonalization.\n\n  ==> Pre-Iterations <==\n\n  SCF Guess: Superposition of Atomic Densities via on-the-fly atomic UHF (no occupation information).\n\n   -------------------------\n    Irrep   Nso     Nmo    \n   -------------------------\n     A        370     370 \n   -------------------------\n    Total     370     370\n   -------------------------\n\n  ==> Iterations <==\n\n                           Total Energy        Delta E     RMS |[F,P]|\n\n   @DF-RKS iter SAD:  -467.16117349980686   -4.67161e+02   0.00000e+00 \n   @DF-RKS iter   1:  -466.83282891294351    3.28345e-01   3.06840e-03 DIIS\n   @DF-RKS iter   2:  -466.19451759016874    6.38311e-01   4.21660e-03 DIIS\n   @DF-RKS iter   3:  -467.39516860632131   -1.20065e+00   8.89921e-04 DIIS\n   @DF-RKS iter   4:  -467.43094946288477   -3.57809e-02   5.57061e-04 DIIS\n   @DF-RKS iter   5:  -467.44924163285663   -1.82922e-02   1.77137e-04 DIIS\n   @DF-RKS iter   6:  -467.45113797526739   -1.89634e-03   5.95356e-05 DIIS\n   @DF-RKS iter   7:  -467.45135117659413   -2.13201e-04   2.37947e-05 DIIS\n   @DF-RKS iter   8:  -467.45138718727497   -3.60107e-05   6.01471e-06 DIIS\n   @DF-RKS iter   9:  -467.45138893114756   -1.74387e-06   2.88465e-06 DIIS\n   @DF-RKS iter  10:  -467.45138944827198   -5.17124e-07   5.64955e-07 DIIS\n  Energy and wave function converged.\n\n\n  ==> Post-Iterations <==\n\n    Orbital Energies [Eh]\n    ---------------------\n\n    Doubly Occupied:                                                      \n\n       1A    -14.399581     2A    -14.354882     3A    -14.333934  \n       4A    -14.326014     5A    -14.320508     6A    -10.266737  \n       7A    -10.256240     8A    -10.252078     9A    -10.238465  \n      10A    -10.205833    11A     -1.019841    12A     -0.962354  \n      13A     -0.921539    14A     -0.876876    15A     -0.846256  \n      16A     -0.747286    17A     -0.644458    18A     -0.628118  \n      19A     -0.606797    20A     -0.553579    21A     -0.522306  \n      22A     -0.489291    23A     -0.472644    24A     -0.440336  \n      25A     -0.433049    26A     -0.417154    27A     -0.393896  \n      28A     -0.378265    29A     -0.335321    30A     -0.302030  \n      31A     -0.278485    32A     -0.266556    33A     -0.251893  \n      34A     -0.232226    35A     -0.209880  \n\n    Virtual:                                                              \n\n      36A     -0.052455    37A     -0.025665    38A     -0.001901  \n      39A      0.002485    40A      0.011699    41A      0.038123  \n      42A      0.047248    43A      0.059261    44A      0.077127  \n      45A      0.112223    46A      0.126668    47A      0.127030  \n      48A      0.130156    49A      0.140157    50A      0.153906  \n      51A      0.165723    52A      0.177800    53A      0.198398  \n      54A      0.206779    55A      0.214968    56A      0.221029  \n      57A      0.231897    58A      0.239132    59A      0.249845  \n      60A      0.250196    61A      0.258492    62A      0.273595  \n      63A      0.276846    64A      0.282396    65A      0.296343  \n      66A      0.307837    67A      0.321056    68A      0.324574  \n      69A      0.330190    70A      0.355614    71A      0.367243  \n      72A      0.369105    73A      0.373754    74A      0.383243  \n      75A      0.398056    76A      0.405023    77A      0.416484  \n      78A      0.424691    79A      0.430990    80A      0.450769  \n      81A      0.456108    82A      0.464090    83A      0.493821  \n      84A      0.515518    85A      0.518879    86A      0.524409  \n      87A      0.547966    88A      0.558181    89A      0.577137  \n      90A      0.593118    91A      0.602026    92A      0.612760  \n      93A      0.622910    94A      0.640485    95A      0.651199  \n      96A      0.678040    97A      0.694167    98A      0.702140  \n      99A      0.717101   100A      0.722927   101A      0.754440  \n     102A      0.767711   103A      0.819007   104A      0.846806  \n     105A      0.876762   106A      0.893931   107A      0.906317  \n     108A      0.910960   109A      0.964480   110A      0.971562  \n     111A      0.995065   112A      1.015855   113A      1.038048  \n     114A      1.042739   115A      1.072315   116A      1.081797  \n     117A      1.090880   118A      1.110027   119A      1.147374  \n     120A      1.164497   121A      1.176689   122A      1.194843  \n     123A      1.196648   124A      1.237733   125A      1.249339  \n     126A      1.275145   127A      1.305574   128A      1.309040  \n     129A      1.331120   130A      1.346500   131A      1.359699  \n     132A      1.371613   133A      1.377819   134A      1.398823  \n     135A      1.404072   136A      1.413180   137A      1.440023  \n     138A      1.452791   139A      1.477493   140A      1.501094  \n     141A      1.509923   142A      1.527158   143A      1.540192  \n     144A      1.556256   145A      1.580770   146A      1.599812  \n     147A      1.618355   148A      1.640199   149A      1.655413  \n     150A      1.672252   151A      1.675197   152A      1.696832  \n     153A      1.718549   154A      1.742846   155A      1.754988  \n     156A      1.766031   157A      1.779511   158A      1.782600  \n     159A      1.801349   160A      1.826937   161A      1.836879  \n     162A      1.863802   163A      1.879521   164A      1.890297  \n     165A      1.913295   166A      1.922425   167A      1.959145  \n     168A      1.981577   169A      2.000246   170A      2.010977  \n     171A      2.041982   172A      2.064184   173A      2.087633  \n     174A      2.110236   175A      2.133967   176A      2.148961  \n     177A      2.171638   178A      2.181856   179A      2.201330  \n     180A      2.255895   181A      2.269788   182A      2.281666  \n     183A      2.313516   184A      2.331450   185A      2.373688  \n     186A      2.384860   187A      2.397082   188A      2.452866  \n     189A      2.527568   190A      2.540735   191A      2.610552  \n     192A      2.634178   193A      2.786738   194A      2.863500  \n     195A      2.889418   196A      2.929476   197A      2.963315  \n     198A      3.007023   199A      3.033156   200A      3.041675  \n     201A      3.069956   202A      3.096371   203A      3.129888  \n     204A      3.180464   205A      3.222203   206A      3.239435  \n     207A      3.262412   208A      3.293406   209A      3.333752  \n     210A      3.374952   211A      3.383735   212A      3.390342  \n     213A      3.427672   214A      3.446190   215A      3.471226  \n     216A      3.491385   217A      3.523897   218A      3.537510  \n     219A      3.567129   220A      3.573734   221A      3.597396  \n     222A      3.603905   223A      3.650636   224A      3.665334  \n     225A      3.682151   226A      3.734808   227A      3.773838  \n     228A      3.778569   229A      3.808572   230A      3.834376  \n     231A      3.856312   232A      3.871089   233A      3.889309  \n     234A      3.904071   235A      3.913786   236A      3.970952  \n     237A      3.977329   238A      4.001922   239A      4.012369  \n     240A      4.024944   241A      4.063323   242A      4.085881  \n     243A      4.105691   244A      4.120275   245A      4.146757  \n     246A      4.170927   247A      4.172833   248A      4.210808  \n     249A      4.222932   250A      4.256274   251A      4.260397  \n     252A      4.284043   253A      4.308659   254A      4.323697  \n     255A      4.344061   256A      4.351159   257A      4.359917  \n     258A      4.371733   259A      4.381755   260A      4.407670  \n     261A      4.417881   262A      4.422665   263A      4.448240  \n     264A      4.461322   265A      4.465446   266A      4.481696  \n     267A      4.522411   268A      4.527591   269A      4.548758  \n     270A      4.557073   271A      4.576980   272A      4.581880  \n     273A      4.593885   274A      4.622032   275A      4.642660  \n     276A      4.652410   277A      4.681012   278A      4.692892  \n     279A      4.702751   280A      4.712989   281A      4.740603  \n     282A      4.748001   283A      4.772472   284A      4.827980  \n     285A      4.853254   286A      4.871233   287A      4.888088  \n     288A      4.912586   289A      4.937228   290A      4.978823  \n     291A      4.986276   292A      5.002957   293A      5.015539  \n     294A      5.023755   295A      5.063550   296A      5.088013  \n     297A      5.114435   298A      5.138391   299A      5.143480  \n     300A      5.179448   301A      5.195732   302A      5.204074  \n     303A      5.221926   304A      5.271719   305A      5.274637  \n     306A      5.310638   307A      5.341054   308A      5.350501  \n     309A      5.389985   310A      5.409541   311A      5.426678  \n     312A      5.434965   313A      5.472743   314A      5.486097  \n     315A      5.494484   316A      5.502881   317A      5.538296  \n     318A      5.548921   319A      5.572174   320A      5.604049  \n     321A      5.608623   322A      5.645235   323A      5.661831  \n     324A      5.684066   325A      5.687836   326A      5.701733  \n     327A      5.721559   328A      5.739866   329A      5.747857  \n     330A      5.762831   331A      5.781525   332A      5.805229  \n     333A      5.826016   334A      5.855004   335A      5.880578  \n     336A      5.920868   337A      5.940658   338A      5.983604  \n     339A      6.008897   340A      6.016826   341A      6.059529  \n     342A      6.096421   343A      6.112070   344A      6.148755  \n     345A      6.167322   346A      6.188115   347A      6.209191  \n     348A      6.238748   349A      6.288833   350A      6.312786  \n     351A      6.360047   352A      6.407689   353A      6.464103  \n     354A      6.535722   355A      6.546834   356A      6.596921  \n     357A      6.610915   358A      6.740523   359A      6.792859  \n     360A      6.804371   361A      6.858634   362A      6.948046  \n     363A      6.985368   364A      7.091143   365A      7.170343  \n     366A      7.196580   367A      7.365381   368A      7.465764  \n     369A      8.436864   370A     10.013439  \n\n    Final Occupation by Irrep:\n              A \n    DOCC [    35 ]\n\n  @DF-RKS Final Energy:  -467.45138944827198\n\n   => Energetics <=\n\n    Nuclear Repulsion Energy =            501.2235939031376120\n    One-Electron Energy =               -1626.5907911276417508\n    Two-Electron Energy =                 721.5347373858550100\n    DFT Exchange-Correlation Energy =     -63.8854155102195662\n    Empirical Dispersion Energy =           0.0000000000000000\n    VV10 Nonlocal Energy =                  0.2664859005968316\n    Total Energy =                       -467.4513894482719820\n\nComputation Completed\n\n\nProperties will be evaluated at   0.000000,   0.000000,   0.000000 [a0]\n\nProperties computed using the SCF density matrix\n\n  Nuclear Dipole Moment: [e a0]\n     X:    -0.8453      Y:    -1.3883      Z:    -0.6829\n\n  Electronic Dipole Moment: [e a0]\n     X:     1.4252      Y:     0.6333      Z:     0.3241\n\n  Dipole Moment: [e a0]\n     X:     0.5799      Y:    -0.7550      Z:    -0.3588     Total:     1.0174\n\n  Dipole Moment: [D]\n     X:     1.4739      Y:    -1.9191      Z:    -0.9119     Total:     2.5859\n\n\n*** tstop() called on bignimbus at Sun Apr 25 07:19:49 2021\nModule time:\n\tuser time   =     517.98 seconds =       8.63 minutes\n\tsystem time =      12.08 seconds =       0.20 minutes\n\ttotal time  =         35 seconds =       0.58 minutes\nTotal time:\n\tuser time   =     517.98 seconds =       8.63 minutes\n\tsystem time =      12.08 seconds =       0.20 minutes\n\ttotal time  =         35 seconds =       0.58 minutes\n\n    Psi4 stopped on: Sunday, 25 April 2021 07:19AM\n    Psi4 wall time for execution: 0:00:35.91\n\n*** Psi4 exiting successfully. Buy a developer a beer!\n",
 "stderr": null,
 "success": true,
 "error": null,
 "tag": "b97m-v pcseg-2 c3a_a"
}