{
 "id": null,
 "schema_name": "qcschema_output",
 "schema_version": 1,
 "molecule": {
  "validated": true,
  "symbols": [
   "C",
   "C",
   "C",
   "C",
   "N",
   "N",
   "N",
   "O",
   "H",
   "H",
   "H",
   "H",
   "H",
   "C",
   "C",
   "C",
   "C",
   "C",
   "N",
   "N",
   "N",
   "N",
   "N",
   "O",
   "H",
   "H",
   "H",
   "H",
   "H"
  ],
  "geometry": [
   -3.711901804594667,
   -4.713979593399892,
   0.0,
   -8.251613552495511,
   -4.633649225532806,
   0.0,
   -8.270866082261676,
   -2.1077260129522197,
   0.0,
   -5.830417072061675,
   -0.8772346258126067,
   0.0,
   -6.041312397388894,
   -5.919246916216895,
   0.0,
   -3.7056619289284054,
   -2.164417796715955,
   0.0,
   -5.705508064895037,
   1.6193694859315009,
   0.0,
   -1.821878992135142,
   -5.999913655334313,
   0.0,
   -5.9954714210375375,
   -7.7980182993254425,
   0.0,
   -9.946229234952071,
   -5.749840527974103,
   0.0,
   -9.995906355338105,
   -1.0477956367180536,
   0.0,
   -7.266979313730213,
   2.6542723293601043,
   0.0,
   -4.014023658628362,
   2.492859482627998,
   0.0,
   1.328885943280326,
   2.9539828928577156,
   0.0,
   3.6271406214441297,
   -1.0726323071849462,
   0.0,
   5.837402092302113,
   2.4545944183136026,
   0.0,
   3.7915203381932043,
   4.0509197758067215,
   0.0,
   6.978084245329344,
   6.432080518546612,
   0.0,
   1.4671042915485621,
   0.32238619534152807,
   0.0,
   5.883392357017381,
   -0.08610456284193779,
   0.0,
   4.568947997028178,
   6.542540679757997,
   0.0,
   7.8815793134458625,
   3.9914123001160564,
   0.0,
   3.342048979253059,
   -3.580778866103349,
   0.0,
   -0.716272045722534,
   3.9795448200481816,
   0.0,
   -0.20976686258994692,
   -0.5800411775141048,
   0.0,
   8.233476553624119,
   8.019820850251776,
   0.0,
   9.671340816593098,
   3.4300143524911695,
   0.0,
   4.903745105497165,
   -4.614990069770037,
   0.0,
   1.6481022598449129,
   -4.421809037142858,
   0.0
  ],
  "name": "C9H10N8O2",
  "molecular_charge": 0.0,
  "molecular_multiplicity": 1,
  "masses": [
   12.0,
   12.0,
   12.0,
   12.0,
   14.00307400443,
   14.00307400443,
   14.00307400443,
   15.99491461957,
   1.00782503223,
   1.00782503223,
   1.00782503223,
   1.00782503223,
   1.00782503223,
   12.0,
   12.0,
   12.0,
   12.0,
   12.0,
   14.00307400443,
   14.00307400443,
   14.00307400443,
   14.00307400443,
   14.00307400443,
   15.99491461957,
   1.00782503223,
   1.00782503223,
   1.00782503223,
   1.00782503223,
   1.00782503223
  ],
  "real": [
   true,
   true,
   true,
   true,
   true,
   true,
   true,
   true,
   true,
   true,
   true,
   true,
   true,
   true,
   true,
   true,
   true,
   true,
   true,
   true,
   true,
   true,
   true,
   true,
   true,
   true,
   true,
   true,
   true
  ],
  "atom_labels": [
   "",
   "",
   "",
   "",
   "",
   "",
   "",
   "",
   "",
   "",
   "",
   "",
   "",
   "",
   "",
   "",
   "",
   "",
   "",
   "",
   "",
   "",
   "",
   "",
   "",
   "",
   "",
   "",
   ""
  ],
  "atomic_numbers": [
   6,
   6,
   6,
   6,
   7,
   7,
   7,
   8,
   1,
   1,
   1,
   1,
   1,
   6,
   6,
   6,
   6,
   6,
   7,
   7,
   7,
   7,
   7,
   8,
   1,
   1,
   1,
   1,
   1
  ],
  "mass_numbers": [
   12,
   12,
   12,
   12,
   14,
   14,
   14,
   16,
   1,
   1,
   1,
   1,
   1,
   12,
   12,
   12,
   12,
   12,
   14,
   14,
   14,
   14,
   14,
   16,
   1,
   1,
   1,
   1,
   1
  ],
  "fragments": [
   [
    0,
    1,
    2,
    3,
    4,
    5,
    6,
    7,
    8,
    9,
    10,
    11,
    12,
    13,
    14,
    15,
    16,
    17,
    18,
    19,
    20,
    21,
    22,
    23,
    24,
    25,
    26,
    27,
    28
   ]
  ],
  "fragment_charges": [
   0.0
  ],
  "fragment_multiplicities": [
   1
  ],
  "fix_com": false,
  "fix_orientation": false,
  "provenance": {
   "creator": "QCElemental",
   "version": "v0.19.0",
   "routine": "qcelemental.molparse.from_string"
  }
 },
 "driver": "energy",
 "model": {
  "method": "dsd-pbep86-nl",
  "basis": "pcseg-1"
 },
 "keywords": {
  "guess": "SAP",
  "freeze_core": "true",
  "dft_vv10_postscf": "true"
 },
 "protocols": {},
 "extras": {
  "qcvars": {
   "CURRENT DIPOLE X": -4.730298534729094,
   "CURRENT DIPOLE Y": -4.345107371206315,
   "CURRENT DIPOLE Z": 0.0,
   "CURRENT ENERGY": -935.1766368977472,
   "CURRENT REFERENCE ENERGY": -933.7803440052029,
   "DFT FUNCTIONAL TOTAL ENERGY": -933.7803440052028,
   "DFT TOTAL ENERGY": -935.1766368977472,
   "DFT VV10 ENERGY": 0.1809642749774264,
   "DFT XC ENERGY": -39.325333139707496,
   "DOUBLE-HYBRID CORRECTION ENERGY": -1.3962928925443454,
   "DSD-PBEP86-NL DOUBLE-HYBRID CORRECTION ENERGY": -1.3962928925443454,
   "DSD-PBEP86-NL TOTAL ENERGY": -935.1766368977472,
   "NUCLEAR REPULSION ENERGY": 1391.9768784958428,
   "ONE-ELECTRON ENERGY": -4037.880400745334,
   "PCM POLARIZATION ENERGY": 0.0,
   "PE ENERGY": 0.0,
   "SCF DIPOLE X": -4.730298534729094,
   "SCF DIPOLE Y": -4.345107371206315,
   "SCF DIPOLE Z": 0.0,
   "SCF ITERATION ENERGY": -933.9613073939245,
   "SCF ITERATIONS": 13.0,
   "SCF TOTAL ENERGY": -933.7803440052029,
   "TWO-ELECTRON ENERGY": 1751.2675471090186,
   "XC GRID RADIAL POINTS": 75.0,
   "XC GRID SPHERICAL POINTS": 302.0,
   "XC GRID TOTAL POINTS": 599342.0,
   "CURRENT DIPOLE": [
    -1.8610426430230167,
    -1.7094967784716584,
    0.0
   ],
   "SCF DIPOLE": [
    -1.8610426430230167,
    -1.7094967784716584,
    0.0
   ]
  }
 },
 "provenance": {
  "creator": "Psi4",
  "version": "1.4a2.dev923",
  "routine": "psi4.schema_runner.run_qcschema",
  "wall_time": 46.6800274848938,
  "qcengine_version": "v0.17.0",
  "memory": 200.0,
  "cpu": "AMD EPYC Processor (with IBPB)",
  "hostname": "bignimbus",
  "nthreads": 32,
  "username": "ubuntu"
 },
 "properties": {
  "calcinfo_nbasis": 316,
  "calcinfo_nmo": 316,
  "calcinfo_nalpha": 68,
  "calcinfo_nbeta": 68,
  "calcinfo_natom": 29,
  "nuclear_repulsion_energy": 1391.9768784958428,
  "return_energy": -935.1766368977472,
  "scf_one_electron_energy": -4037.880400745334,
  "scf_two_electron_energy": 1751.2675471090186,
  "scf_vv10_energy": 0.1809642749774264,
  "scf_xc_energy": -39.325333139707496,
  "scf_dipole_moment": [
   -1.8610426430230167,
   -1.7094967784716584,
   0.0
  ],
  "scf_total_energy": -933.7803440052029,
  "scf_iterations": 13
 },
 "wavefunction": null,
 "return_result": -935.1766368977472,
 "stdout": "\n    -----------------------------------------------------------------------\n          Psi4: An Open-Source Ab Initio Electronic Structure Package\n                               Psi4 1.4a2.dev923 \n\n                         Git: Rev {master} 5de566e \n\n\n    D. G. A. Smith, L. A. Burns, A. C. Simmonett, R. M. Parrish,\n    M. C. Schieber, R. Galvelis, P. Kraus, H. Kruse, R. Di Remigio,\n    A. Alenaizan, A. M. James, S. Lehtola, J. P. Misiewicz, M. Scheurer,\n    R. A. Shaw, J. B. Schriber, Y. Xie, Z. L. Glick, D. A. Sirianni,\n    J. S. O'Brien, J. M. Waldrop, A. Kumar, E. G. Hohenstein,\n    B. P. Pritchard, B. R. Brooks, H. F. Schaefer III, A. Yu. Sokolov,\n    K. Patkowski, A. E. DePrince III, U. Bozkaya, R. A. King,\n    F. A. Evangelista, J. M. Turney, T. D. Crawford, C. D. Sherrill,\n    J. Chem. Phys. 152(18) 184108 (2020). https://doi.org/10.1063/5.0006002\n\n                            Additional Code Authors\n    E. T. Seidl, C. L. Janssen, E. F. Valeev, M. L. Leininger,\n    J. F. Gonthier, R. M. Richard, H. R. McAlexander, M. Saitow, X. Wang,\n    P. Verma, and M. H. Lechner\n\n             Previous Authors, Complete List of Code Contributors,\n                       and Citations for Specific Modules\n    https://github.com/psi4/psi4/blob/master/codemeta.json\n    https://github.com/psi4/psi4/graphs/contributors\n    http://psicode.org/psi4manual/master/introduction.html#citing-psifour\n\n    -----------------------------------------------------------------------\n\n\n    Psi4 started on: Monday, 17 May 2021 03:40PM\n\n    Process ID: 2523822\n    Host:       bignimbus\n    PSIDATADIR: /home/ubuntu/pk/Applications/miniconda3/envs/psi4-1.4a2.dev923/share/psi4\n    Memory:     186.3 GiB\n    Threads:    32\n    \n  ==> Input QCSchema <==\n\n--------------------------------------------------------------------------\n{'driver': 'energy',\n 'extras': {},\n 'id': None,\n 'keywords': {'dft_vv10_postscf': 'true', 'freeze_core': 'true', 'guess': 'SAP'},\n 'model': {'basis': 'pcseg-1', 'method': 'dsd-pbep86-nl'},\n 'molecule': {'atom_labels': ['', '', '', '', '', '', '', '', '', '', '', '', '', '', '', '', '', '', '', '', '', '',\n                              '', '', '', '', '', '', ''],\n              'atomic_numbers': [6, 6, 6, 6, 7, 7, 7, 8, 1, 1, 1, 1, 1, 6, 6, 6, 6, 6, 7, 7, 7, 7, 7, 8, 1, 1, 1, 1, 1],\n              'fix_com': False,\n              'fix_orientation': False,\n              'fragment_charges': [0.0],\n              'fragment_multiplicities': [1],\n              'fragments': [[0, 1, 2, 3, 4, 5, 6, 7, 8, 9, 10, 11, 12, 13, 14, 15, 16, 17, 18, 19, 20, 21, 22, 23, 24,\n                             25, 26, 27, 28]],\n              'geometry': [-3.711901804594666, -4.713979593399892, 0.0, -8.251613552495511, -4.633649225532806, 0.0,\n                           -8.270866082261676, -2.10772601295222, 0.0, -5.830417072061674, -0.877234625812607, 0.0,\n                           -6.041312397388893, -5.919246916216895, 0.0, -3.7056619289284045, -2.1644177967159552, 0.0,\n                           -5.705508064895036, 1.6193694859315007, 0.0, -1.821878992135141, -5.999913655334313, 0.0,\n                           -5.995471421037537, -7.7980182993254425, 0.0, -9.946229234952071, -5.749840527974103, 0.0,\n                           -9.995906355338105, -1.0477956367180539, 0.0, -7.2669793137302126, 2.654272329360104, 0.0,\n                           -4.0140236586283615, 2.4928594826279977, 0.0, 1.3288859432803268, 2.953982892857715, 0.0,\n                           3.6271406214441306, -1.0726323071849464, 0.0, 5.8374020923021135, 2.454594418313602, 0.0,\n                           3.791520338193205, 4.0509197758067215, 0.0, 6.978084245329345, 6.432080518546612, 0.0,\n                           1.467104291548563, 0.32238619534152774, 0.0, 5.883392357017382, -0.08610456284193811, 0.0,\n                           4.568947997028179, 6.542540679757997, 0.0, 7.881579313445863, 3.991412300116056, 0.0,\n                           3.34204897925306, -3.5807788661033495, 0.0, -0.7162720457225332, 3.979544820048181, 0.0,\n                           -0.2097668625899461, -0.5800411775141051, 0.0, 8.233476553624119, 8.019820850251776, 0.0,\n                           9.671340816593098, 3.430014352491169, 0.0, 4.9037451054971655, -4.614990069770037, 0.0,\n                           1.6481022598449138, -4.421809037142858, 0.0],\n              'mass_numbers': [12, 12, 12, 12, 14, 14, 14, 16, 1, 1, 1, 1, 1, 12, 12, 12, 12, 12, 14, 14, 14, 14, 14,\n                               16, 1, 1, 1, 1, 1],\n              'masses': [12.0, 12.0, 12.0, 12.0, 14.00307400443, 14.00307400443, 14.00307400443, 15.99491461957,\n                         1.00782503223, 1.00782503223, 1.00782503223, 1.00782503223, 1.00782503223, 12.0, 12.0, 12.0,\n                         12.0, 12.0, 14.00307400443, 14.00307400443, 14.00307400443, 14.00307400443, 14.00307400443,\n                         15.99491461957, 1.00782503223, 1.00782503223, 1.00782503223, 1.00782503223, 1.00782503223],\n              'molecular_charge': 0.0,\n              'molecular_multiplicity': 1,\n              'name': 'C9H10N8O2',\n              'provenance': {'creator': 'QCElemental',\n                             'routine': 'qcelemental.molparse.from_string',\n                             'version': 'v0.19.0'},\n              'real': [True, True, True, True, True, True, True, True, True, True, True, True, True, True, True, True,\n                       True, True, True, True, True, True, True, True, True, True, True, True, True],\n              'symbols': ['C', 'C', 'C', 'C', 'N', 'N', 'N', 'O', 'H', 'H', 'H', 'H', 'H', 'C', 'C', 'C', 'C', 'C', 'N',\n                          'N', 'N', 'N', 'N', 'O', 'H', 'H', 'H', 'H', 'H'],\n              'validated': True},\n 'protocols': {},\n 'provenance': {'creator': 'QCElemental', 'routine': 'qcelemental.models.results', 'version': 'v0.17.0'},\n 'schema_name': 'qcschema_input',\n 'schema_version': 1}\n--------------------------------------------------------------------------\n\nScratch directory: /home/ubuntu/pk/scratch/tmpv9o63zi0_psi_scratch/\n\n*** tstart() called on bignimbus\n*** at Mon May 17 15:40:24 2021\n\n   => Loading Basis Set <=\n\n    Name: PCSEG-1\n    Role: ORBITAL\n    Keyword: BASIS\n    atoms 1-4, 14-18  entry C          line    90 file /home/ubuntu/pk/Applications/miniconda3/envs/psi4-1.4a2.dev923/share/psi4/basis/pcseg-1.gbs \n    atoms 5-7, 19-23  entry N          line   111 file /home/ubuntu/pk/Applications/miniconda3/envs/psi4-1.4a2.dev923/share/psi4/basis/pcseg-1.gbs \n    atoms 8, 24       entry O          line   132 file /home/ubuntu/pk/Applications/miniconda3/envs/psi4-1.4a2.dev923/share/psi4/basis/pcseg-1.gbs \n    atoms 9-13, 25-29 entry H          line    13 file /home/ubuntu/pk/Applications/miniconda3/envs/psi4-1.4a2.dev923/share/psi4/basis/pcseg-1.gbs \n\n   => DSD-PBEP86-NL: Empirical Dispersion <=\n\n    Grimme's -NL (DFT plus VV10 correlation) \n    Hujo, W.; Grimme, S; (2011), J. Chem. Theory Comput.; 7:3866\n    Parametrisation from:    M. K. Kesharwani, A. Karton, J.M. L. Martin, J. Chem. Theory Comput. 12, 444-454, 2016\n\n         b =      12.800000\n         c =       0.009300\n\n\n         ---------------------------------------------------------\n                                   SCF\n               by Justin Turney, Rob Parrish, Andy Simmonett\n                          and Daniel G. A. Smith\n                              RKS Reference\n                       32 Threads, 190734 MiB Core\n         ---------------------------------------------------------\n\n  ==> Geometry <==\n\n    Molecular point group: cs\n    Full point group: Cs\n\n    Geometry (in Bohr), charge = 0, multiplicity = 1:\n\n       Center              X                  Y                   Z               Mass       \n    ------------   -----------------  -----------------  -----------------  -----------------\n         C           -3.711901804595    -4.713979593400     0.000000000000    12.000000000000\n         C           -8.251613552496    -4.633649225533     0.000000000000    12.000000000000\n         C           -8.270866082262    -2.107726012952     0.000000000000    12.000000000000\n         C           -5.830417072062    -0.877234625813     0.000000000000    12.000000000000\n         N           -6.041312397389    -5.919246916217     0.000000000000    14.003074004430\n         N           -3.705661928928    -2.164417796716     0.000000000000    14.003074004430\n         N           -5.705508064895     1.619369485932     0.000000000000    14.003074004430\n         O           -1.821878992135    -5.999913655334     0.000000000000    15.994914619570\n         H           -5.995471421038    -7.798018299325     0.000000000000     1.007825032230\n         H           -9.946229234952    -5.749840527974     0.000000000000     1.007825032230\n         H           -9.995906355338    -1.047795636718     0.000000000000     1.007825032230\n         H           -7.266979313730     2.654272329360     0.000000000000     1.007825032230\n         H           -4.014023658628     2.492859482628     0.000000000000     1.007825032230\n         C            1.328885943280     2.953982892858     0.000000000000    12.000000000000\n         C            3.627140621444    -1.072632307185     0.000000000000    12.000000000000\n         C            5.837402092302     2.454594418314     0.000000000000    12.000000000000\n         C            3.791520338193     4.050919775807     0.000000000000    12.000000000000\n         C            6.978084245329     6.432080518547     0.000000000000    12.000000000000\n         N            1.467104291549     0.322386195342     0.000000000000    14.003074004430\n         N            5.883392357017    -0.086104562842     0.000000000000    14.003074004430\n         N            4.568947997028     6.542540679758     0.000000000000    14.003074004430\n         N            7.881579313446     3.991412300116     0.000000000000    14.003074004430\n         N            3.342048979253    -3.580778866103     0.000000000000    14.003074004430\n         O           -0.716272045723     3.979544820048     0.000000000000    15.994914619570\n         H           -0.209766862590    -0.580041177514     0.000000000000     1.007825032230\n         H            8.233476553624     8.019820850252     0.000000000000     1.007825032230\n         H            9.671340816593     3.430014352491     0.000000000000     1.007825032230\n         H            4.903745105497    -4.614990069770     0.000000000000     1.007825032230\n         H            1.648102259845    -4.421809037143     0.000000000000     1.007825032230\n\n  Running in cs symmetry.\n\n  Rotational constants: A =      0.03012  B =      0.00652  C =      0.00536 [cm^-1]\n  Rotational constants: A =    902.90855  B =    195.51287  C =    160.71267 [MHz]\n  Nuclear repulsion = 1391.976878495842811\n\n  Charge       = 0\n  Multiplicity = 1\n  Electrons    = 136\n  Nalpha       = 68\n  Nbeta        = 68\n\n  ==> Algorithm <==\n\n  SCF Algorithm Type is DF.\n  DIIS enabled.\n  MOM disabled.\n  Fractional occupation disabled.\n  Guess Type is SAP.\n  Energy threshold   = 1.00e-06\n  Density threshold  = 1.00e-06\n  Integral threshold = 0.00e+00\n\n  ==> Primary Basis <==\n\n  Basis Set: PCSEG-1\n    Blend: PCSEG-1\n    Number of shells: 144\n    Number of basis function: 316\n    Number of Cartesian functions: 335\n    Spherical Harmonics?: true\n    Max angular momentum: 2\n\n  ==> DFT Potential <==\n\n   => Composite Functional: DSD-PBEP86-NL <= \n\n    DSD-PBEP86-NL (D3BJ parameters) VV10 SCS Double Hybrid XC Functional\n\n    S. Kozuch, J.M.L. Martin, J. Comp. Chem., 34, 2327-2344, 2013\n\n\n    Deriv               =              1\n    GGA                 =           TRUE\n    Meta                =          FALSE\n\n    Exchange Hybrid     =           TRUE\n    MP2 Hybrid          =           TRUE\n\n   => Exchange Functionals <=\n\n    0.3100     XC_GGA_X_PBE\n\n   => Exact (HF) Exchange <=\n\n    0.6900               HF \n\n   => Correlation Functionals <=\n\n    0.4400     XC_GGA_C_P86\n\n   => MP2 Correlation <=\n\n    MP2 SCS Hybrid      =           TRUE\n    MP2 OS Alpha        =       0.520000\n    MP2 SS Alpha        =       0.220000\n\n   => LibXC Density Thresholds  <==\n\n    XC_GGA_C_P86:  1.00E-25 \n    XC_GGA_X_PBE:  1.00E-32 \n\n   => VV10 Non-Local Parameters <=\n\n    VV10 B              =     1.2800E+01\n    VV10 C              =     9.3000E-03\n\n   => Molecular Quadrature <=\n\n    Radial Scheme          =       TREUTLER\n    Pruning Scheme         =           NONE\n    Nuclear Scheme         =       TREUTLER\n\n    BS radius alpha        =              1\n    Pruning alpha          =              1\n    Radial Points          =             75\n    Spherical Points       =            302\n    Total Points           =         599342\n    Total Blocks           =           4421\n    Max Points             =            256\n    Max Functions          =            229\n    Weights Tolerance      =       1.00E-15\n\n   => Loading Basis Set <=\n\n    Name: (PCSEG-1 AUX)\n    Role: JKFIT\n    Keyword: DF_BASIS_SCF\n    atoms 1-4, 14-18  entry C          line   198 file /home/ubuntu/pk/Applications/miniconda3/envs/psi4-1.4a2.dev923/share/psi4/basis/def2-universal-jkfit.gbs \n    atoms 5-7, 19-23  entry N          line   258 file /home/ubuntu/pk/Applications/miniconda3/envs/psi4-1.4a2.dev923/share/psi4/basis/def2-universal-jkfit.gbs \n    atoms 8, 24       entry O          line   318 file /home/ubuntu/pk/Applications/miniconda3/envs/psi4-1.4a2.dev923/share/psi4/basis/def2-universal-jkfit.gbs \n    atoms 9-13, 25-29 entry H          line    18 file /home/ubuntu/pk/Applications/miniconda3/envs/psi4-1.4a2.dev923/share/psi4/basis/def2-universal-jkfit.gbs \n\n  ==> Integral Setup <==\n\n  DFHelper Memory: AOs need 0.916 GiB; user supplied 137.177 GiB. Using in-core AOs.\n\n  ==> MemDFJK: Density-Fitted J/K Matrices <==\n\n    J tasked:                   Yes\n    K tasked:                   Yes\n    wK tasked:                   No\n    OpenMP threads:              32\n    Memory [MiB]:            140468\n    Algorithm:                 Core\n    Schwarz Cutoff:           1E-12\n    Mask sparsity (%):      29.5325\n    Fitting Condition:        1E-10\n\n   => Auxiliary Basis Set <=\n\n  Basis Set: (PCSEG-1 AUX)\n    Blend: DEF2-UNIVERSAL-JKFIT\n    Number of shells: 535\n    Number of basis function: 1625\n    Number of Cartesian functions: 1931\n    Spherical Harmonics?: true\n    Max angular momentum: 4\n\n  Cached 100.0% of DFT collocation blocks in 2.522 [GiB].\n\n  Minimum eigenvalue in the overlap matrix is 8.5746633077E-04.\n  Reciprocal condition number of the overlap matrix is 1.3883380781E-04.\n    Using symmetric orthogonalization.\n\n  ==> Pre-Iterations <==\n\n  SCF Guess: Superposition of Atomic Potentials (doi:10.1021/acs.jctc.8b01089).\n\n  ==> SAP guess <==\n\n   => Molecular Quadrature <=\n\n    Radial Scheme          =       TREUTLER\n    Pruning Scheme         =           NONE\n    Nuclear Scheme         =       TREUTLER\n\n    BS radius alpha        =              1\n    Pruning alpha          =              1\n    Radial Points          =             75\n    Spherical Points       =            302\n    Total Points           =         599342\n    Total Blocks           =           4421\n    Max Points             =            256\n    Max Functions          =            229\n    Weights Tolerance      =       1.00E-15\n\n   -------------------------------------------------------\n    Irrep   Nso     Nmo     Nalpha   Nbeta   Ndocc  Nsocc\n   -------------------------------------------------------\n     A'       230     230      56      56      56       0\n     A\"        86      86      12      12      12       0\n   -------------------------------------------------------\n    Total     316     316      68      68      68       0\n   -------------------------------------------------------\n\n  VV10: post-SCF option active \n \n  ==> Iterations <==\n\n                           Total Energy        Delta E     RMS |[F,P]|\n\n    Occupation by irrep:\n             Ap   App \n    DOCC [    58,   10 ]\n\n   @DF-RKS iter   1:  -927.34968436640645   -9.27350e+02   1.46263e-02 DIIS\n    Occupation by irrep:\n             Ap   App \n    DOCC [    56,   12 ]\n\n   @DF-RKS iter   2:  -915.60711171976448    1.17426e+01   2.10528e-02 DIIS\n   @DF-RKS iter   3:  -930.96080541420349   -1.53537e+01   7.58321e-03 DIIS\n   @DF-RKS iter   4:  -932.25014371387715   -1.28934e+00   5.30075e-03 DIIS\n   @DF-RKS iter   5:  -933.83107845402253   -1.58093e+00   2.01671e-03 DIIS\n   @DF-RKS iter   6:  -933.95282810597962   -1.21750e-01   4.42163e-04 DIIS\n   @DF-RKS iter   7:  -933.95878824184956   -5.96014e-03   2.56874e-04 DIIS\n   @DF-RKS iter   8:  -933.96071030260839   -1.92206e-03   1.15507e-04 DIIS\n   @DF-RKS iter   9:  -933.96124011129530   -5.29809e-04   3.72762e-05 DIIS\n   @DF-RKS iter  10:  -933.96129889295958   -5.87817e-05   1.31560e-05 DIIS\n   @DF-RKS iter  11:  -933.96130668018327   -7.78722e-06   3.71340e-06 DIIS\n   @DF-RKS iter  12:  -933.96130728655271   -6.06369e-07   1.29393e-06 DIIS\n   @DF-RKS iter  13:  -933.96130739392447   -1.07372e-07   3.91726e-07 DIIS\n  Energy and wave function converged.\n\n  ==> Computing Non-Self-Consistent VV10 Energy Correction <==\n\n\n  ==> Post-Iterations <==\n\n    Orbital Energies [Eh]\n    ---------------------\n\n    Doubly Occupied:                                                      \n\n       1Ap   -19.961928     2Ap   -19.947033     3Ap   -15.144973  \n       4Ap   -15.119035     5Ap   -15.102591     6Ap   -15.101087  \n       7Ap   -15.076247     8Ap   -15.066046     9Ap   -15.049275  \n      10Ap   -15.045150    11Ap   -10.966107    12Ap   -10.941340  \n      13Ap   -10.941122    14Ap   -10.925313    15Ap   -10.916937  \n      16Ap   -10.881516    17Ap   -10.869022    18Ap   -10.842785  \n      19Ap   -10.807395    20Ap    -1.301860    21Ap    -1.272582  \n      22Ap    -1.242471    23Ap    -1.211802    24Ap    -1.210093  \n      25Ap    -1.176266    26Ap    -1.098681    27Ap    -1.093924  \n      28Ap    -1.089050    29Ap    -1.063082    30Ap    -0.990786  \n      31Ap    -0.928746    32Ap    -0.842138    33Ap    -0.825822  \n      34Ap    -0.816178    35Ap    -0.795317    36Ap    -0.755932  \n      37Ap    -0.723908    38Ap    -0.722402    39Ap    -0.715185  \n      40Ap    -0.677531    41Ap    -0.663750    42Ap    -0.656626  \n      43Ap    -0.633744    44Ap    -0.621847    45Ap    -0.598947  \n       1App   -0.595584    46Ap    -0.586130     2App   -0.585573  \n      47Ap    -0.573958    48Ap    -0.558657    49Ap    -0.552837  \n      50Ap    -0.538808    51Ap    -0.534806     3App   -0.530473  \n       4App   -0.503373     5App   -0.487105     6App   -0.468066  \n      52Ap    -0.418255    53Ap    -0.404825    54Ap    -0.392973  \n       7App   -0.386856    55Ap    -0.369844     8App   -0.362399  \n      56Ap    -0.355774     9App   -0.352963    10App   -0.348746  \n      11App   -0.330867    12App   -0.256861  \n\n    Virtual:                                                              \n\n      13App    0.029337    57Ap     0.083223    14App    0.092437  \n      15App    0.097333    16App    0.108115    58Ap     0.112138  \n      59Ap     0.124090    60Ap     0.138112    61Ap     0.151924  \n      17App    0.157941    62Ap     0.168004    63Ap     0.176377  \n      64Ap     0.228847    18App    0.238714    65Ap     0.239356  \n      66Ap     0.267181    67Ap     0.277763    68Ap     0.297246  \n      69Ap     0.301889    19App    0.303064    70Ap     0.309347  \n      71Ap     0.337928    72Ap     0.350002    73Ap     0.357908  \n      74Ap     0.362731    75Ap     0.379981    76Ap     0.395731  \n      77Ap     0.402315    78Ap     0.414010    79Ap     0.421418  \n      80Ap     0.429237    81Ap     0.457279    82Ap     0.466817  \n      83Ap     0.472748    20App    0.477692    84Ap     0.490526  \n      21App    0.505717    85Ap     0.523110    86Ap     0.527868  \n      87Ap     0.540595    22App    0.556980    88Ap     0.557622  \n      23App    0.560941    89Ap     0.565744    24App    0.587002  \n      90Ap     0.602067    91Ap     0.605867    25App    0.616154  \n      92Ap     0.617782    93Ap     0.627432    94Ap     0.635954  \n      26App    0.650896    95Ap     0.655900    27App    0.657251  \n      96Ap     0.671277    97Ap     0.675067    98Ap     0.680949  \n      99Ap     0.701237   100Ap     0.719630    28App    0.728352  \n     101Ap     0.734275   102Ap     0.736727   103Ap     0.758968  \n     104Ap     0.789569   105Ap     0.793717   106Ap     0.805628  \n     107Ap     0.822048    29App    0.831120   108Ap     0.832759  \n      30App    0.840131   109Ap     0.852344    31App    0.852924  \n     110Ap     0.869558   111Ap     0.870101   112Ap     0.872628  \n     113Ap     0.887750    32App    0.894191   114Ap     0.901605  \n      33App    0.914234   115Ap     0.924732   116Ap     0.935528  \n     117Ap     0.958140    34App    0.968281   118Ap     0.979235  \n     119Ap     0.984681   120Ap     0.997982    35App    1.004062  \n     121Ap     1.019864   122Ap     1.043879   123Ap     1.056724  \n      36App    1.065738   124Ap     1.070622   125Ap     1.099176  \n     126Ap     1.124356    37App    1.135096   127Ap     1.142402  \n     128Ap     1.150919    38App    1.169194   129Ap     1.177770  \n     130Ap     1.231250   131Ap     1.245815   132Ap     1.263967  \n     133Ap     1.285998   134Ap     1.306704   135Ap     1.330217  \n     136Ap     1.344305   137Ap     1.362296    39App    1.370369  \n      40App    1.378527   138Ap     1.394600   139Ap     1.409870  \n      41App    1.413254   140Ap     1.428496   141Ap     1.437374  \n     142Ap     1.449897    42App    1.479447    43App    1.498439  \n      44App    1.506231   143Ap     1.506987    45App    1.525840  \n     144Ap     1.541964    46App    1.555354    47App    1.558179  \n      48App    1.579007    49App    1.596513   145Ap     1.607237  \n      50App    1.609347   146Ap     1.625542    51App    1.625927  \n     147Ap     1.637284    52App    1.651202    53App    1.670316  \n      54App    1.685698   148Ap     1.696053   149Ap     1.723726  \n     150Ap     1.761264   151Ap     1.835394   152Ap     1.863430  \n     153Ap     1.875822   154Ap     1.917183   155Ap     1.954521  \n     156Ap     1.987115   157Ap     2.003312    55App    2.003774  \n     158Ap     2.018238   159Ap     2.027997    56App    2.043297  \n     160Ap     2.052382   161Ap     2.066078    57App    2.067441  \n     162Ap     2.094774    58App    2.096676   163Ap     2.107808  \n     164Ap     2.121604   165Ap     2.142304    59App    2.147126  \n     166Ap     2.151082   167Ap     2.174962   168Ap     2.185903  \n     169Ap     2.199863   170Ap     2.219706    60App    2.219959  \n     171Ap     2.240106    61App    2.248701   172Ap     2.252581  \n     173Ap     2.260355   174Ap     2.287226   175Ap     2.322121  \n      62App    2.326091   176Ap     2.346174    63App    2.352499  \n      64App    2.362782   177Ap     2.375323    65App    2.383244  \n     178Ap     2.388232   179Ap     2.410222    66App    2.423553  \n      67App    2.428560   180Ap     2.448722   181Ap     2.458642  \n     182Ap     2.475218   183Ap     2.492922   184Ap     2.517453  \n      68App    2.518428    69App    2.525858   185Ap     2.536870  \n      70App    2.558133    71App    2.563863   186Ap     2.563992  \n     187Ap     2.589589    72App    2.630119   188Ap     2.630929  \n      73App    2.638616   189Ap     2.651441   190Ap     2.659695  \n      74App    2.679025   191Ap     2.683789   192Ap     2.705054  \n     193Ap     2.729162    75App    2.729228   194Ap     2.742994  \n     195Ap     2.768260    76App    2.780905   196Ap     2.795192  \n     197Ap     2.809779    77App    2.813983    78App    2.838364  \n     198Ap     2.864710    79App    2.867125   199Ap     2.883886  \n      80App    2.884759    81App    2.893805   200Ap     2.900620  \n     201Ap     2.943748   202Ap     2.963031    82App    2.968620  \n     203Ap     3.004068    83App    3.008772   204Ap     3.031981  \n     205Ap     3.047544    84App    3.070004   206Ap     3.097979  \n      85App    3.121283    86App    3.161240   207Ap     3.188762  \n     208Ap     3.200811   209Ap     3.208868   210Ap     3.239734  \n     211Ap     3.245770   212Ap     3.272453   213Ap     3.312467  \n     214Ap     3.359282   215Ap     3.372544   216Ap     3.390428  \n     217Ap     3.464611   218Ap     3.516390   219Ap     3.523437  \n     220Ap     3.539948   221Ap     3.576479   222Ap     3.621989  \n     223Ap     3.654027   224Ap     3.659462   225Ap     3.682350  \n     226Ap     3.899086   227Ap     3.914247   228Ap     3.971338  \n     229Ap     3.995087   230Ap     4.048160  \n\n    Final Occupation by Irrep:\n             Ap   App \n    DOCC [    56,   12 ]\n\n  @DF-RKS Final Energy:  -933.78034400520289\n\n   => Energetics <=\n\n    Nuclear Repulsion Energy =           1391.9768784958428114\n    One-Electron Energy =               -4037.8804007453341001\n    Two-Electron Energy =                1751.2675471090185511\n    DFT Exchange-Correlation Energy =     -39.3253331397074959\n    Empirical Dispersion Energy =           0.0000000000000000\n    VV10 Nonlocal Energy =                  0.1809642749774264\n    Total Energy =                       -933.7803440052027781\n\nComputation Completed\n\n\nProperties will be evaluated at   0.000000,   0.000000,   0.000000 [a0]\n\nProperties computed using the SCF density matrix\n\n  Nuclear Dipole Moment: [e a0]\n     X:    -6.4534      Y:    -3.7842      Z:     0.0000\n\n  Electronic Dipole Moment: [e a0]\n     X:     4.5923      Y:     2.0747      Z:     0.0000\n\n  Dipole Moment: [e a0]\n     X:    -1.8610      Y:    -1.7095      Z:     0.0000     Total:     2.5270\n\n  Dipole Moment: [D]\n     X:    -4.7303      Y:    -4.3451      Z:     0.0000     Total:     6.4231\n\n\n*** tstop() called on bignimbus at Mon May 17 15:40:59 2021\nModule time:\n\tuser time   =     814.43 seconds =      13.57 minutes\n\tsystem time =      22.76 seconds =       0.38 minutes\n\ttotal time  =         35 seconds =       0.58 minutes\nTotal time:\n\tuser time   =     814.43 seconds =      13.57 minutes\n\tsystem time =      22.76 seconds =       0.38 minutes\n\ttotal time  =         35 seconds =       0.58 minutes\n\n*** tstart() called on bignimbus\n*** at Mon May 17 15:40:59 2021\n\n   => Loading Basis Set <=\n\n    Name: (PCSEG-1 AUX)\n    Role: RIFIT\n    Keyword: DF_BASIS_MP2\n    atoms 1-4, 14-18  entry C          line   153 file /home/ubuntu/pk/Applications/miniconda3/envs/psi4-1.4a2.dev923/share/psi4/basis/def2-svp-ri.gbs \n    atoms 5-7, 19-23  entry N          line   193 file /home/ubuntu/pk/Applications/miniconda3/envs/psi4-1.4a2.dev923/share/psi4/basis/def2-svp-ri.gbs \n    atoms 8, 24       entry O          line   233 file /home/ubuntu/pk/Applications/miniconda3/envs/psi4-1.4a2.dev923/share/psi4/basis/def2-svp-ri.gbs \n    atoms 9-13, 25-29 entry H          line    22 file /home/ubuntu/pk/Applications/miniconda3/envs/psi4-1.4a2.dev923/share/psi4/basis/def2-svp-ri.gbs \n\n\t --------------------------------------------------------\n\t                          DF-MP2                         \n\t      2nd-Order Density-Fitted Moller-Plesset Theory     \n\t              RMP2 Wavefunction,  32 Threads             \n\t                                                         \n\t        Rob Parrish, Justin Turney, Andy Simmonett,      \n\t           Ed Hohenstein, and C. David Sherrill          \n\t --------------------------------------------------------\n\n   => Auxiliary Basis Set <=\n\n  Basis Set: (PCSEG-1 AUX)\n    Blend: DEF2-SVP-RI\n    Number of shells: 364\n    Number of basis function: 1052\n    Number of Cartesian functions: 1195\n    Spherical Harmonics?: true\n    Max angular momentum: 3\n\n\t --------------------------------------------------------\n\t                 NBF =   316, NAUX =  1052\n\t --------------------------------------------------------\n\t   CLASS    FOCC     OCC    AOCC    AVIR     VIR    FVIR\n\t   PAIRS      19      68      49     248     248       0\n\t --------------------------------------------------------\n\n\t-----------------------------------------------------------\n\t ==================> DF-MP2 Energies <==================== \n\t-----------------------------------------------------------\n\t Reference Energy          =    -933.7803440052028918 [Eh]\n\t Singles Energy            =      -0.0000000000000000 [Eh]\n\t Same-Spin Energy          =      -0.8905370802800765 [Eh]\n\t Opposite-Spin Energy      =      -2.3084129516975547 [Eh]\n\t Correlation Energy        =      -3.1989500319776312 [Eh]\n\t Total Energy              =    -936.9792940371805798 [Eh]\n\t-----------------------------------------------------------\n\t ================> DF-SCS-MP2 Energies <================== \n\t-----------------------------------------------------------\n\t SCS Same-Spin Scale       =       0.2200000000000000 [-]\n\t SCS Opposite-Spin Scale   =       0.5200000000000000 [-]\n\t SCS Same-Spin Energy      =      -0.1959181576616168 [Eh]\n\t SCS Opposite-Spin Energy  =      -1.2003747348827285 [Eh]\n\t SCS Correlation Energy    =      -3.0669412354637577 [Eh]\n\t SCS Total Energy          =    -936.8472852406666789 [Eh]\n\t-----------------------------------------------------------\n\n\n\n    DSD-PBEP86-NL Energy Summary\n    ----------------------------\n    DFT Reference Energy                  =  -933.7803440052028918\n    Scaled MP2 Correlation                =    -1.3962928925443454\n    @Final double-hybrid DFT total energy =  -935.1766368977472439\n\n\n*** tstop() called on bignimbus at Mon May 17 15:41:04 2021\nModule time:\n\tuser time   =      81.03 seconds =       1.35 minutes\n\tsystem time =       2.31 seconds =       0.04 minutes\n\ttotal time  =          5 seconds =       0.08 minutes\nTotal time:\n\tuser time   =     895.50 seconds =      14.93 minutes\n\tsystem time =      25.07 seconds =       0.42 minutes\n\ttotal time  =         40 seconds =       0.67 minutes\n\n    Psi4 stopped on: Monday, 17 May 2021 03:41PM\n    Psi4 wall time for execution: 0:00:39.96\n\n*** Psi4 exiting successfully. Buy a developer a beer!\n",
 "stderr": null,
 "success": true,
 "error": null,
 "tag": "dsd-pbep86-nl pcseg-1 gcgc_a"
}