{
 "id": null,
 "schema_name": "qcschema_output",
 "schema_version": 1,
 "molecule": {
  "validated": true,
  "symbols": [
   "C",
   "C",
   "C",
   "C",
   "C",
   "N",
   "N",
   "N",
   "N",
   "N",
   "H",
   "H",
   "H",
   "H",
   "H"
  ],
  "geometry": [
   -2.6005148446510584,
   0.057862058844925304,
   -0.05834799091184591,
   -0.18166540406503784,
   -1.0514071767988198,
   0.03991776761196013,
   1.8611285375548743,
   0.6342285271095628,
   0.08527119462294801,
   -0.6465380309276636,
   3.967705412417172,
   0.03235886311012896,
   3.108347780357041,
   -3.3625422282337434,
   0.004012971228262092,
   -2.7857080049459246,
   2.5976539714602467,
   -0.05267881253547342,
   1.7553038745292358,
   3.1645718090975947,
   0.09849927750115343,
   0.6309168298818281,
   -3.543955936277695,
   -0.011104837775400238,
   3.9719526196912684,
   -0.9002290867621937,
   0.08716092074840669,
   -4.769920436676645,
   -1.3273071911156626,
   -0.11126032242466495,
   -0.9092099623663019,
   6.004830175660711,
   0.01913078023192442,
   4.406589628546569,
   -4.938573816865572,
   -0.07157607379005133,
   5.787979426256241,
   -0.31630371399572466,
   -0.04700963415909916,
   -6.351621203684847,
   -0.38811330676312217,
   -0.6366041853019416,
   -4.6414190601455125,
   -3.160341532809756,
   -0.6403836375528572
  ],
  "name": "C5H5N5",
  "molecular_charge": 0.0,
  "molecular_multiplicity": 1,
  "masses": [
   12.0,
   12.0,
   12.0,
   12.0,
   12.0,
   14.00307400443,
   14.00307400443,
   14.00307400443,
   14.00307400443,
   14.00307400443,
   1.00782503223,
   1.00782503223,
   1.00782503223,
   1.00782503223,
   1.00782503223
  ],
  "real": [
   true,
   true,
   true,
   true,
   true,
   true,
   true,
   true,
   true,
   true,
   true,
   true,
   true,
   true,
   true
  ],
  "atom_labels": [
   "",
   "",
   "",
   "",
   "",
   "",
   "",
   "",
   "",
   "",
   "",
   "",
   "",
   "",
   ""
  ],
  "atomic_numbers": [
   6,
   6,
   6,
   6,
   6,
   7,
   7,
   7,
   7,
   7,
   1,
   1,
   1,
   1,
   1
  ],
  "mass_numbers": [
   12,
   12,
   12,
   12,
   12,
   14,
   14,
   14,
   14,
   14,
   1,
   1,
   1,
   1,
   1
  ],
  "fragments": [
   [
    0,
    1,
    2,
    3,
    4,
    5,
    6,
    7,
    8,
    9,
    10,
    11,
    12,
    13,
    14
   ]
  ],
  "fragment_charges": [
   0.0
  ],
  "fragment_multiplicities": [
   1
  ],
  "fix_com": false,
  "fix_orientation": false,
  "provenance": {
   "creator": "QCElemental",
   "version": "v0.19.0",
   "routine": "qcelemental.molparse.from_string"
  }
 },
 "driver": "energy",
 "model": {
  "method": "m062x-d3",
  "basis": "def2-qzvpd"
 },
 "keywords": {},
 "protocols": {},
 "extras": {
  "qcvars": {
   "2-BODY DISPERSION CORRECTION ENERGY": -0.00033434,
   "CURRENT DIPOLE X": 1.5840473651364138,
   "CURRENT DIPOLE Y": -1.8597412700725784,
   "CURRENT DIPOLE Z": -0.9249602713013373,
   "CURRENT ENERGY": -467.3603497040443,
   "CURRENT REFERENCE ENERGY": -467.3603497040443,
   "DFT FUNCTIONAL TOTAL ENERGY": -467.3600153640444,
   "DFT TOTAL ENERGY": -467.3603497040444,
   "DFT VV10 ENERGY": 0.0,
   "DFT XC ENERGY": -30.634131432721276,
   "DISPERSION CORRECTION ENERGY": -0.00033434,
   "M06-2X-D3 DISPERSION CORRECTION ENERGY": -0.00033434,
   "NUCLEAR REPULSION ENERGY": 501.22359390313767,
   "ONE-ELECTRON ENERGY": -1626.2499114605375,
   "PCM POLARIZATION ENERGY": 0.0,
   "PE ENERGY": 0.0,
   "SCF DIPOLE X": 1.5840473651364138,
   "SCF DIPOLE Y": -1.8597412700725784,
   "SCF DIPOLE Z": -0.9249602713013373,
   "SCF ITERATION ENERGY": -467.3603497040443,
   "SCF ITERATIONS": 9.0,
   "SCF TOTAL ENERGY": -467.3603497040443,
   "TWO-ELECTRON ENERGY": 688.3004336260767,
   "XC GRID RADIAL POINTS": 75.0,
   "XC GRID SPHERICAL POINTS": 302.0,
   "XC GRID TOTAL POINTS": 317513.0,
   "CURRENT DIPOLE": [
    0.6232121870202318,
    -0.7316785152531751,
    -0.36390737188271605
   ],
   "SCF DIPOLE": [
    0.6232121870202318,
    -0.7316785152531751,
    -0.36390737188271605
   ]
  }
 },
 "provenance": {
  "creator": "Psi4",
  "version": "1.4a2.dev923",
  "routine": "psi4.schema_runner.run_qcschema",
  "cpu": "Intel(R) Xeon(R) CPU E5-2620 v4 @ 2.10GHz",
  "hostname": "z135",
  "qcengine_version": "v0.16.0",
  "wall_time": 85.13312649726868,
  "username": "kraus",
  "nthreads": 16,
  "memory": 800.0
 },
 "properties": {
  "calcinfo_nbasis": 795,
  "calcinfo_nmo": 795,
  "calcinfo_nalpha": 35,
  "calcinfo_nbeta": 35,
  "calcinfo_natom": 15,
  "nuclear_repulsion_energy": 501.22359390313767,
  "return_energy": -467.3603497040443,
  "scf_one_electron_energy": -1626.2499114605375,
  "scf_two_electron_energy": 688.3004336260767,
  "scf_xc_energy": -30.634131432721276,
  "scf_dispersion_correction_energy": -0.00033434,
  "scf_dipole_moment": [
   0.6232121870202318,
   -0.7316785152531751,
   -0.36390737188271605
  ],
  "scf_total_energy": -467.3603497040443,
  "scf_iterations": 9
 },
 "wavefunction": null,
 "return_result": -467.3603497040443,
 "stdout": "\n    -----------------------------------------------------------------------\n          Psi4: An Open-Source Ab Initio Electronic Structure Package\n                               Psi4 1.4a2.dev923 \n\n                         Git: Rev {master} 5de566e \n\n\n    D. G. A. Smith, L. A. Burns, A. C. Simmonett, R. M. Parrish,\n    M. C. Schieber, R. Galvelis, P. Kraus, H. Kruse, R. Di Remigio,\n    A. Alenaizan, A. M. James, S. Lehtola, J. P. Misiewicz, M. Scheurer,\n    R. A. Shaw, J. B. Schriber, Y. Xie, Z. L. Glick, D. A. Sirianni,\n    J. S. O'Brien, J. M. Waldrop, A. Kumar, E. G. Hohenstein,\n    B. P. Pritchard, B. R. Brooks, H. F. Schaefer III, A. Yu. Sokolov,\n    K. Patkowski, A. E. DePrince III, U. Bozkaya, R. A. King,\n    F. A. Evangelista, J. M. Turney, T. D. Crawford, C. D. Sherrill,\n    J. Chem. Phys. 152(18) 184108 (2020). https://doi.org/10.1063/5.0006002\n\n                            Additional Code Authors\n    E. T. Seidl, C. L. Janssen, E. F. Valeev, M. L. Leininger,\n    J. F. Gonthier, R. M. Richard, H. R. McAlexander, M. Saitow, X. Wang,\n    P. Verma, and M. H. Lechner\n\n             Previous Authors, Complete List of Code Contributors,\n                       and Citations for Specific Modules\n    https://github.com/psi4/psi4/blob/master/codemeta.json\n    https://github.com/psi4/psi4/graphs/contributors\n    http://psicode.org/psi4manual/master/introduction.html#citing-psifour\n\n    -----------------------------------------------------------------------\n\n\n    Psi4 started on: Sunday, 25 April 2021 02:20PM\n\n    Process ID: 11237\n    Host:       z135\n    PSIDATADIR: /group/f97/kraus/miniconda3/envs/psi4-1.4a2.dev923/share/psi4\n    Memory:     745.1 GiB\n    Threads:    16\n    \n  ==> Input QCSchema <==\n\n--------------------------------------------------------------------------\n{'driver': 'energy',\n 'extras': {},\n 'id': None,\n 'keywords': {},\n 'model': {'basis': 'def2-qzvpd', 'method': 'm062x-d3'},\n 'molecule': {'atom_labels': ['', '', '', '', '', '', '', '', '', '', '', '', '', '', ''],\n              'atomic_numbers': [6, 6, 6, 6, 6, 7, 7, 7, 7, 7, 1, 1, 1, 1, 1],\n              'fix_com': False,\n              'fix_orientation': False,\n              'fragment_charges': [0.0],\n              'fragment_multiplicities': [1],\n              'fragments': [[0, 1, 2, 3, 4, 5, 6, 7, 8, 9, 10, 11, 12, 13, 14]],\n              'geometry': [-2.600514844651058, 0.0578620588449254, -0.05834799091184806, -0.1816654040650374,\n                           -1.0514071767988198, 0.03991776761195798, 1.8611285375548747, 0.6342285271095629,\n                           0.08527119462294586, -0.6465380309276632, 3.967705412417172, 0.03235886311012681,\n                           3.1083477803570414, -3.3625422282337434, 0.004012971228259943, -2.785708004945924,\n                           2.5976539714602467, -0.05267881253547557, 1.7553038745292362, 3.1645718090975947,\n                           0.09849927750115128, 0.6309168298818285, -3.543955936277695, -0.011104837775402387,\n                           3.971952619691269, -0.9002290867621936, 0.08716092074840454, -4.769920436676644,\n                           -1.3273071911156626, -0.1112603224246671, -0.9092099623663015, 6.004830175660711,\n                           0.019130780231922273, 4.40658962854657, -4.938573816865572, -0.07157607379005348,\n                           5.787979426256242, -0.31630371399572454, -0.04700963415910131, -6.3516212036848465,\n                           -0.38811330676312206, -0.6366041853019437, -4.641419060145512, -3.160341532809756,\n                           -0.6403836375528593],\n              'mass_numbers': [12, 12, 12, 12, 12, 14, 14, 14, 14, 14, 1, 1, 1, 1, 1],\n              'masses': [12.0, 12.0, 12.0, 12.0, 12.0, 14.00307400443, 14.00307400443, 14.00307400443, 14.00307400443,\n                         14.00307400443, 1.00782503223, 1.00782503223, 1.00782503223, 1.00782503223, 1.00782503223],\n              'molecular_charge': 0.0,\n              'molecular_multiplicity': 1,\n              'name': 'C5H5N5',\n              'provenance': {'creator': 'QCElemental',\n                             'routine': 'qcelemental.molparse.from_string',\n                             'version': 'v0.19.0'},\n              'real': [True, True, True, True, True, True, True, True, True, True, True, True, True, True, True],\n              'symbols': ['C', 'C', 'C', 'C', 'C', 'N', 'N', 'N', 'N', 'N', 'H', 'H', 'H', 'H', 'H'],\n              'validated': True},\n 'protocols': {},\n 'provenance': {'creator': 'QCElemental', 'routine': 'qcelemental.models.results', 'version': 'v0.16.0'},\n 'schema_name': 'qcschema_input',\n 'schema_version': 1}\n--------------------------------------------------------------------------\n\nScratch directory: /scratch/f97/kraus/scratch/tmp15tutdqc_psi_scratch/\n\n*** tstart() called on z135\n*** at Sun Apr 25 14:20:15 2021\n\n   => Loading Basis Set <=\n\n    Name: DEF2-QZVPD\n    Role: ORBITAL\n    Keyword: BASIS\n    atoms 1-5   entry C          line   201 file /group/f97/kraus/miniconda3/envs/psi4-1.4a2.dev923/share/psi4/basis/def2-qzvpd.gbs \n    atoms 6-10  entry N          line   253 file /group/f97/kraus/miniconda3/envs/psi4-1.4a2.dev923/share/psi4/basis/def2-qzvpd.gbs \n    atoms 11-15 entry H          line    14 file /group/f97/kraus/miniconda3/envs/psi4-1.4a2.dev923/share/psi4/basis/def2-qzvpd.gbs \n\n   => M06-2X-D3: Empirical Dispersion <=\n\n    Grimme's -D3 (zero-damping) Dispersion Correction\n    Grimme S.; Antony J.; Ehrlich S.; Krieg H. (2010), J. Chem. Phys., 132: 154104\n    Parametrisation from:    L. Goerigk, S. Grimme, Phys. Chem. Chem. Phys. 13, 6670-6688, 2011\n\n        s6 =       1.000000\n        s8 =       0.000000\n       sr6 =       1.619000\n    alpha6 =      14.000000\n       sr8 =       1.000000\n\n\n         ---------------------------------------------------------\n                                   SCF\n               by Justin Turney, Rob Parrish, Andy Simmonett\n                          and Daniel G. A. Smith\n                              RKS Reference\n                       16 Threads, 762939 MiB Core\n         ---------------------------------------------------------\n\n  ==> Geometry <==\n\n    Molecular point group: c1\n    Full point group: C1\n\n    Geometry (in Bohr), charge = 0, multiplicity = 1:\n\n       Center              X                  Y                   Z               Mass       \n    ------------   -----------------  -----------------  -----------------  -----------------\n         C           -2.600514844651     0.057862058845    -0.058347990912    12.000000000000\n         C           -0.181665404065    -1.051407176799     0.039917767612    12.000000000000\n         C            1.861128537555     0.634228527110     0.085271194623    12.000000000000\n         C           -0.646538030928     3.967705412417     0.032358863110    12.000000000000\n         C            3.108347780357    -3.362542228234     0.004012971228    12.000000000000\n         N           -2.785708004946     2.597653971460    -0.052678812535    14.003074004430\n         N            1.755303874529     3.164571809098     0.098499277501    14.003074004430\n         N            0.630916829882    -3.543955936278    -0.011104837775    14.003074004430\n         N            3.971952619691    -0.900229086762     0.087160920748    14.003074004430\n         N           -4.769920436677    -1.327307191116    -0.111260322425    14.003074004430\n         H           -0.909209962366     6.004830175661     0.019130780232     1.007825032230\n         H            4.406589628547    -4.938573816866    -0.071576073790     1.007825032230\n         H            5.787979426256    -0.316303713996    -0.047009634159     1.007825032230\n         H           -6.351621203685    -0.388113306763    -0.636604185302     1.007825032230\n         H           -4.641419060146    -3.160341532810    -0.640383637553     1.007825032230\n\n  Running in c1 symmetry.\n\n  Rotational constants: A =      0.07881  B =      0.05206  C =      0.03137 [cm^-1]\n  Rotational constants: A =   2362.65971  B =   1560.84141  C =    940.48329 [MHz]\n  Nuclear repulsion =  501.223593903137669\n\n  Charge       = 0\n  Multiplicity = 1\n  Electrons    = 70\n  Nalpha       = 35\n  Nbeta        = 35\n\n  ==> Algorithm <==\n\n  SCF Algorithm Type is DF.\n  DIIS enabled.\n  MOM disabled.\n  Fractional occupation disabled.\n  Guess Type is SAD.\n  Energy threshold   = 1.00e-06\n  Density threshold  = 1.00e-06\n  Integral threshold = 0.00e+00\n\n  ==> Primary Basis <==\n\n  Basis Set: DEF2-QZVPD\n    Blend: DEF2-QZVPD\n    Number of shells: 245\n    Number of basis function: 795\n    Number of Cartesian functions: 980\n    Spherical Harmonics?: true\n    Max angular momentum: 4\n\n  ==> DFT Potential <==\n\n   => Composite Functional: M06-2X-D3ZERO <= \n\n    Hybrid M06-2X Meta-GGA XC Functional\n\n    Y. Zhao and D. G. Truhlar,  Theor. Chem. Acc., 120, 215, 2008\n\n\n    Deriv               =              1\n    GGA                 =           TRUE\n    Meta                =           TRUE\n\n    Exchange Hybrid     =           TRUE\n    MP2 Hybrid          =          FALSE\n\n   => Exchange Functionals <=\n\n    1.0000   XC_HYB_MGGA_X_M06_2X\n\n   => Exact (HF) Exchange <=\n\n    0.5400               HF \n\n   => Correlation Functionals <=\n\n    1.0000   XC_MGGA_C_M06_2X\n\n   => LibXC Density Thresholds  <==\n\n    XC_MGGA_C_M06_2X:  1.00E-23 \n    XC_HYB_MGGA_X_M06_2X:  1.00E-20 \n\n   => Molecular Quadrature <=\n\n    Radial Scheme          =       TREUTLER\n    Pruning Scheme         =           NONE\n    Nuclear Scheme         =       TREUTLER\n\n    BS radius alpha        =              1\n    Pruning alpha          =              1\n    Radial Points          =             75\n    Spherical Points       =            302\n    Total Points           =         317513\n    Total Blocks           =           2382\n    Max Points             =            256\n    Max Functions          =            675\n    Weights Tolerance      =       1.00E-15\n\n   => Loading Basis Set <=\n\n    Name: (DEF2-QZVPD AUX)\n    Role: JKFIT\n    Keyword: DF_BASIS_SCF\n    atoms 1-5   entry C          line   198 file /group/f97/kraus/miniconda3/envs/psi4-1.4a2.dev923/share/psi4/basis/def2-universal-jkfit.gbs \n    atoms 6-10  entry N          line   258 file /group/f97/kraus/miniconda3/envs/psi4-1.4a2.dev923/share/psi4/basis/def2-universal-jkfit.gbs \n    atoms 11-15 entry H          line    18 file /group/f97/kraus/miniconda3/envs/psi4-1.4a2.dev923/share/psi4/basis/def2-universal-jkfit.gbs \n\n  ==> Integral Setup <==\n\n  DFHelper Memory: AOs need 3.692 GiB; user supplied 547.722 GiB. Using in-core AOs.\n\n  ==> MemDFJK: Density-Fitted J/K Matrices <==\n\n    J tasked:                   Yes\n    K tasked:                   Yes\n    wK tasked:                   No\n    OpenMP threads:              16\n    Memory [MiB]:            560867\n    Algorithm:                 Core\n    Schwarz Cutoff:           1E-12\n    Mask sparsity (%):      12.9447\n    Fitting Condition:        1E-10\n\n   => Auxiliary Basis Set <=\n\n  Basis Set: (DEF2-QZVPD AUX)\n    Blend: DEF2-UNIVERSAL-JKFIT\n    Number of shells: 280\n    Number of basis function: 850\n    Number of Cartesian functions: 1010\n    Spherical Harmonics?: true\n    Max angular momentum: 4\n\n  Cached 100.0% of DFT collocation blocks in 11.072 [GiB].\n\n  Minimum eigenvalue in the overlap matrix is 3.3239328313E-07.\n  Reciprocal condition number of the overlap matrix is 1.9711836676E-08.\n    Using symmetric orthogonalization.\n\n  ==> Pre-Iterations <==\n\n  SCF Guess: Superposition of Atomic Densities via on-the-fly atomic UHF (no occupation information).\n\n   -------------------------\n    Irrep   Nso     Nmo    \n   -------------------------\n     A        795     795 \n   -------------------------\n    Total     795     795\n   -------------------------\n\n  ==> Iterations <==\n\n                           Total Energy        Delta E     RMS |[F,P]|\n\n   @DF-RKS iter SAD:  -467.33822856335752   -4.67338e+02   0.00000e+00 \n   @DF-RKS iter   1:  -466.96740930595820    3.70819e-01   1.19984e-03 DIIS\n   @DF-RKS iter   2:  -467.04134825277737   -7.39389e-02   1.09678e-03 DIIS\n   @DF-RKS iter   3:  -467.35094757255314   -3.09599e-01   1.84717e-04 DIIS\n   @DF-RKS iter   4:  -467.35837944297276   -7.43187e-03   8.49957e-05 DIIS\n   @DF-RKS iter   5:  -467.36020526732796   -1.82582e-03   2.25721e-05 DIIS\n   @DF-RKS iter   6:  -467.36032851513784   -1.23248e-04   8.26956e-06 DIIS\n   @DF-RKS iter   7:  -467.36034814501426   -1.96299e-05   2.24083e-06 DIIS\n   @DF-RKS iter   8:  -467.36034936541904   -1.22040e-06   1.02825e-06 DIIS\n   @DF-RKS iter   9:  -467.36034970404432   -3.38625e-07   3.16579e-07 DIIS\n  Energy and wave function converged.\n\n\n  ==> Post-Iterations <==\n\n    Orbital Energies [Eh]\n    ---------------------\n\n    Doubly Occupied:                                                      \n\n       1A    -14.821879     2A    -14.775131     3A    -14.760430  \n       4A    -14.752631     5A    -14.746352     6A    -10.640076  \n       7A    -10.630265     8A    -10.624480     9A    -10.612029  \n      10A    -10.576776    11A     -1.153508    12A     -1.092609  \n      13A     -1.047405    14A     -0.996652    15A     -0.963551  \n      16A     -0.865917    17A     -0.756410    18A     -0.739660  \n      19A     -0.715965    20A     -0.661472    21A     -0.626318  \n      22A     -0.589660    23A     -0.571128    24A     -0.551741  \n      25A     -0.531852    26A     -0.511587    27A     -0.491224  \n      28A     -0.482435    29A     -0.433657    30A     -0.400949  \n      31A     -0.366713    32A     -0.363176    33A     -0.330832  \n      34A     -0.326923    35A     -0.281806  \n\n    Virtual:                                                              \n\n      36A     -0.002913    37A      0.001036    38A      0.017653  \n      39A      0.027655    40A      0.028934    41A      0.040740  \n      42A      0.047110    43A      0.062007    44A      0.063226  \n      45A      0.078779    46A      0.081854    47A      0.090888  \n      48A      0.099078    49A      0.104786    50A      0.114216  \n      51A      0.122930    52A      0.131276    53A      0.134455  \n      54A      0.141401    55A      0.148648    56A      0.159635  \n      57A      0.164431    58A      0.167011    59A      0.170726  \n      60A      0.173154    61A      0.184027    62A      0.188094  \n      63A      0.191286    64A      0.200464    65A      0.209182  \n      66A      0.213080    67A      0.215517    68A      0.217517  \n      69A      0.222310    70A      0.226019    71A      0.233735  \n      72A      0.240226    73A      0.241910    74A      0.254479  \n      75A      0.258165    76A      0.264778    77A      0.265565  \n      78A      0.271990    79A      0.278870    80A      0.281687  \n      81A      0.289122    82A      0.292048    83A      0.297917  \n      84A      0.301879    85A      0.311899    86A      0.316898  \n      87A      0.324676    88A      0.330222    89A      0.330707  \n      90A      0.337170    91A      0.346408    92A      0.347935  \n      93A      0.354205    94A      0.359733    95A      0.361307  \n      96A      0.367913    97A      0.373417    98A      0.386099  \n      99A      0.388670   100A      0.394191   101A      0.398027  \n     102A      0.401792   103A      0.402828   104A      0.412924  \n     105A      0.415570   106A      0.417935   107A      0.425924  \n     108A      0.433214   109A      0.438280   110A      0.440183  \n     111A      0.444268   112A      0.449227   113A      0.458208  \n     114A      0.460600   115A      0.463860   116A      0.466480  \n     117A      0.469724   118A      0.476637   119A      0.479297  \n     120A      0.484784   121A      0.494361   122A      0.497458  \n     123A      0.500556   124A      0.511890   125A      0.514155  \n     126A      0.520743   127A      0.526256   128A      0.529010  \n     129A      0.541665   130A      0.547230   131A      0.547752  \n     132A      0.549534   133A      0.558277   134A      0.563935  \n     135A      0.567358   136A      0.577042   137A      0.585287  \n     138A      0.590722   139A      0.594790   140A      0.605176  \n     141A      0.607485   142A      0.610330   143A      0.616811  \n     144A      0.619664   145A      0.629967   146A      0.638760  \n     147A      0.641667   148A      0.663043   149A      0.666427  \n     150A      0.674151   151A      0.682386   152A      0.688891  \n     153A      0.689616   154A      0.696332   155A      0.703952  \n     156A      0.714522   157A      0.720274   158A      0.730186  \n     159A      0.734969   160A      0.740569   161A      0.751503  \n     162A      0.757409   163A      0.766252   164A      0.773043  \n     165A      0.784403   166A      0.793583   167A      0.801386  \n     168A      0.806124   169A      0.815919   170A      0.824466  \n     171A      0.838204   172A      0.844242   173A      0.863486  \n     174A      0.870823   175A      0.885843   176A      0.888533  \n     177A      0.897815   178A      0.907157   179A      0.911153  \n     180A      0.919434   181A      0.929996   182A      0.932535  \n     183A      0.945891   184A      0.950238   185A      0.956520  \n     186A      0.971991   187A      0.975261   188A      0.984369  \n     189A      0.987627   190A      1.004400   191A      1.009854  \n     192A      1.022059   193A      1.024547   194A      1.038216  \n     195A      1.066052   196A      1.069556   197A      1.086373  \n     198A      1.096194   199A      1.106183   200A      1.111524  \n     201A      1.122032   202A      1.133663   203A      1.137972  \n     204A      1.146519   205A      1.154850   206A      1.169679  \n     207A      1.180495   208A      1.186439   209A      1.199079  \n     210A      1.204861   211A      1.221612   212A      1.232897  \n     213A      1.238037   214A      1.244765   215A      1.258056  \n     216A      1.268450   217A      1.279714   218A      1.293221  \n     219A      1.300571   220A      1.305912   221A      1.307196  \n     222A      1.320977   223A      1.328340   224A      1.332649  \n     225A      1.354636   226A      1.357384   227A      1.363958  \n     228A      1.370484   229A      1.390116   230A      1.395860  \n     231A      1.411385   232A      1.415000   233A      1.422845  \n     234A      1.432016   235A      1.439760   236A      1.445272  \n     237A      1.461685   238A      1.477350   239A      1.480792  \n     240A      1.487531   241A      1.505975   242A      1.517301  \n     243A      1.531327   244A      1.541038   245A      1.550720  \n     246A      1.568931   247A      1.587057   248A      1.597965  \n     249A      1.606392   250A      1.626850   251A      1.644937  \n     252A      1.662196   253A      1.683185   254A      1.694778  \n     255A      1.723699   256A      1.737016   257A      1.758188  \n     258A      1.766269   259A      1.781939   260A      1.808013  \n     261A      1.809759   262A      1.828808   263A      1.839641  \n     264A      1.858495   265A      1.866407   266A      1.876733  \n     267A      1.898979   268A      1.917562   269A      1.932086  \n     270A      1.952691   271A      1.962091   272A      1.969518  \n     273A      1.993098   274A      2.006721   275A      2.018056  \n     276A      2.023141   277A      2.035824   278A      2.043273  \n     279A      2.052428   280A      2.058274   281A      2.075712  \n     282A      2.089017   283A      2.100077   284A      2.113875  \n     285A      2.128411   286A      2.134735   287A      2.145376  \n     288A      2.153499   289A      2.164788   290A      2.173245  \n     291A      2.188210   292A      2.194000   293A      2.196267  \n     294A      2.206598   295A      2.209287   296A      2.217995  \n     297A      2.228948   298A      2.242433   299A      2.248934  \n     300A      2.257419   301A      2.269635   302A      2.287258  \n     303A      2.301526   304A      2.317424   305A      2.322789  \n     306A      2.329277   307A      2.349510   308A      2.354907  \n     309A      2.369205   310A      2.375839   311A      2.384589  \n     312A      2.409908   313A      2.412596   314A      2.416707  \n     315A      2.432786   316A      2.450022   317A      2.466695  \n     318A      2.494166   319A      2.499922   320A      2.505723  \n     321A      2.525335   322A      2.541883   323A      2.544828  \n     324A      2.565320   325A      2.581336   326A      2.588426  \n     327A      2.602323   328A      2.608649   329A      2.614408  \n     330A      2.630364   331A      2.650638   332A      2.667129  \n     333A      2.679989   334A      2.683405   335A      2.701707  \n     336A      2.718774   337A      2.735024   338A      2.745937  \n     339A      2.764907   340A      2.769212   341A      2.777597  \n     342A      2.792104   343A      2.797677   344A      2.817160  \n     345A      2.823535   346A      2.837427   347A      2.843467  \n     348A      2.855828   349A      2.865869   350A      2.891153  \n     351A      2.898414   352A      2.908275   353A      2.923163  \n     354A      2.931078   355A      2.936403   356A      2.949067  \n     357A      2.956394   358A      2.974245   359A      2.984973  \n     360A      2.997583   361A      3.002840   362A      3.015757  \n     363A      3.026852   364A      3.035569   365A      3.047708  \n     366A      3.073419   367A      3.091568   368A      3.110114  \n     369A      3.123551   370A      3.136451   371A      3.156193  \n     372A      3.167404   373A      3.179887   374A      3.189139  \n     375A      3.208876   376A      3.216288   377A      3.233145  \n     378A      3.248049   379A      3.264858   380A      3.283663  \n     381A      3.291076   382A      3.307115   383A      3.330717  \n     384A      3.333262   385A      3.342142   386A      3.360050  \n     387A      3.375646   388A      3.379281   389A      3.387099  \n     390A      3.392892   391A      3.407545   392A      3.443128  \n     393A      3.460731   394A      3.481556   395A      3.498037  \n     396A      3.533841   397A      3.535002   398A      3.538760  \n     399A      3.561345   400A      3.566130   401A      3.579557  \n     402A      3.583173   403A      3.601649   404A      3.620144  \n     405A      3.651700   406A      3.671340   407A      3.679402  \n     408A      3.698729   409A      3.709909   410A      3.712543  \n     411A      3.732043   412A      3.750080   413A      3.770028  \n     414A      3.796509   415A      3.813363   416A      3.831540  \n     417A      3.855358   418A      3.856612   419A      3.868400  \n     420A      3.901626   421A      3.909503   422A      3.918463  \n     423A      3.949033   424A      3.984167   425A      4.001256  \n     426A      4.006837   427A      4.021110   428A      4.052047  \n     429A      4.065903   430A      4.075517   431A      4.095163  \n     432A      4.098891   433A      4.146410   434A      4.149001  \n     435A      4.180531   436A      4.189690   437A      4.211495  \n     438A      4.241426   439A      4.263656   440A      4.278490  \n     441A      4.322691   442A      4.357804   443A      4.397360  \n     444A      4.435151   445A      4.467680   446A      4.488534  \n     447A      4.489680   448A      4.500711   449A      4.528368  \n     450A      4.558313   451A      4.590399   452A      4.635851  \n     453A      4.644656   454A      4.663539   455A      4.708308  \n     456A      4.715959   457A      4.805680   458A      4.828324  \n     459A      4.880701   460A      4.902881   461A      4.913093  \n     462A      4.939839   463A      4.984306   464A      5.020934  \n     465A      5.059203   466A      5.071788   467A      5.109017  \n     468A      5.146921   469A      5.184470   470A      5.198424  \n     471A      5.243558   472A      5.259271   473A      5.298459  \n     474A      5.304866   475A      5.325563   476A      5.343334  \n     477A      5.359102   478A      5.367771   479A      5.375134  \n     480A      5.383747   481A      5.401409   482A      5.418376  \n     483A      5.427463   484A      5.447234   485A      5.457008  \n     486A      5.463179   487A      5.470065   488A      5.483486  \n     489A      5.530832   490A      5.533347   491A      5.544419  \n     492A      5.561589   493A      5.565349   494A      5.579452  \n     495A      5.619435   496A      5.626426   497A      5.653470  \n     498A      5.658495   499A      5.688832   500A      5.707351  \n     501A      5.716554   502A      5.734774   503A      5.750842  \n     504A      5.771530   505A      5.779786   506A      5.806659  \n     507A      5.823938   508A      5.854160   509A      5.867787  \n     510A      5.879739   511A      5.889901   512A      5.897894  \n     513A      5.925287   514A      5.948893   515A      5.956886  \n     516A      5.968460   517A      5.992322   518A      6.008105  \n     519A      6.011019   520A      6.020443   521A      6.022887  \n     522A      6.041380   523A      6.070737   524A      6.083176  \n     525A      6.088006   526A      6.111207   527A      6.126338  \n     528A      6.133292   529A      6.160840   530A      6.171235  \n     531A      6.199672   532A      6.210983   533A      6.234783  \n     534A      6.250959   535A      6.269372   536A      6.280501  \n     537A      6.289343   538A      6.305648   539A      6.320864  \n     540A      6.337892   541A      6.347778   542A      6.364653  \n     543A      6.389890   544A      6.416173   545A      6.422097  \n     546A      6.442955   547A      6.467266   548A      6.484999  \n     549A      6.498688   550A      6.507115   551A      6.518289  \n     552A      6.547003   553A      6.565229   554A      6.573893  \n     555A      6.592165   556A      6.622019   557A      6.625564  \n     558A      6.638273   559A      6.642348   560A      6.648895  \n     561A      6.663687   562A      6.678486   563A      6.721114  \n     564A      6.729199   565A      6.765307   566A      6.778531  \n     567A      6.788718   568A      6.821741   569A      6.839483  \n     570A      6.862213   571A      6.874841   572A      6.897782  \n     573A      6.907895   574A      6.937248   575A      6.958006  \n     576A      6.995418   577A      7.009602   578A      7.032582  \n     579A      7.053831   580A      7.066339   581A      7.087173  \n     582A      7.107380   583A      7.132833   584A      7.147842  \n     585A      7.160819   586A      7.173550   587A      7.206981  \n     588A      7.227297   589A      7.284572   590A      7.304598  \n     591A      7.314046   592A      7.342000   593A      7.365102  \n     594A      7.383955   595A      7.397771   596A      7.436401  \n     597A      7.444838   598A      7.455155   599A      7.462464  \n     600A      7.479150   601A      7.493144   602A      7.515426  \n     603A      7.525723   604A      7.540140   605A      7.578640  \n     606A      7.582358   607A      7.586041   608A      7.626715  \n     609A      7.632464   610A      7.649950   611A      7.660117  \n     612A      7.665172   613A      7.687689   614A      7.715835  \n     615A      7.718456   616A      7.742335   617A      7.755518  \n     618A      7.775563   619A      7.796942   620A      7.817755  \n     621A      7.827059   622A      7.829216   623A      7.843201  \n     624A      7.851363   625A      7.864555   626A      7.866281  \n     627A      7.884580   628A      7.901455   629A      7.925511  \n     630A      7.937749   631A      7.956881   632A      7.971708  \n     633A      7.979059   634A      8.000144   635A      8.020750  \n     636A      8.030393   637A      8.046484   638A      8.064227  \n     639A      8.081080   640A      8.102276   641A      8.125331  \n     642A      8.131787   643A      8.139951   644A      8.155694  \n     645A      8.156962   646A      8.173423   647A      8.195226  \n     648A      8.211689   649A      8.223515   650A      8.245046  \n     651A      8.283594   652A      8.288386   653A      8.298714  \n     654A      8.319148   655A      8.334142   656A      8.338743  \n     657A      8.365406   658A      8.375906   659A      8.394295  \n     660A      8.424854   661A      8.439007   662A      8.447197  \n     663A      8.483062   664A      8.485847   665A      8.506831  \n     666A      8.543551   667A      8.560361   668A      8.580459  \n     669A      8.602631   670A      8.625457   671A      8.648974  \n     672A      8.656722   673A      8.671931   674A      8.680399  \n     675A      8.734100   676A      8.740136   677A      8.754088  \n     678A      8.783017   679A      8.787378   680A      8.813557  \n     681A      8.850771   682A      8.888972   683A      8.906947  \n     684A      8.946225   685A      8.955706   686A      8.980587  \n     687A      9.000383   688A      9.017264   689A      9.038020  \n     690A      9.040241   691A      9.075580   692A      9.101042  \n     693A      9.109938   694A      9.121055   695A      9.128702  \n     696A      9.135126   697A      9.158230   698A      9.172663  \n     699A      9.198449   700A      9.209537   701A      9.240785  \n     702A      9.262570   703A      9.292892   704A      9.336818  \n     705A      9.371728   706A      9.373637   707A      9.434711  \n     708A      9.459647   709A      9.497626   710A      9.508138  \n     711A      9.530214   712A      9.591370   713A      9.606698  \n     714A      9.645432   715A      9.676855   716A      9.691774  \n     717A      9.711546   718A      9.722116   719A      9.741133  \n     720A      9.793290   721A      9.809847   722A      9.833306  \n     723A      9.843067   724A      9.867440   725A      9.925260  \n     726A      9.938582   727A      9.953071   728A      9.996023  \n     729A     10.024845   730A     10.051069   731A     10.071633  \n     732A     10.097988   733A     10.196150   734A     10.220790  \n     735A     10.245054   736A     10.292711   737A     10.337978  \n     738A     10.411150   739A     10.423566   740A     10.441983  \n     741A     10.507795   742A     10.516696   743A     10.551118  \n     744A     10.601133   745A     10.608786   746A     10.761151  \n     747A     10.809172   748A     10.971715   749A     11.081666  \n     750A     11.217422   751A     11.229739   752A     11.241581  \n     753A     11.378709   754A     11.408057   755A     11.437972  \n     756A     11.465353   757A     11.474481   758A     11.523204  \n     759A     11.566536   760A     11.613767   761A     11.694520  \n     762A     11.723654   763A     11.794205   764A     11.863323  \n     765A     11.905916   766A     11.929032   767A     12.034261  \n     768A     12.049047   769A     12.113779   770A     12.266520  \n     771A     12.593844   772A     12.678032   773A     14.395132  \n     774A     14.759968   775A     14.891604   776A     28.232104  \n     777A     28.572295   778A     28.664190   779A     28.795626  \n     780A     28.928608   781A     37.795824   782A     37.816497  \n     783A     37.867310   784A     38.134466   785A     38.322674  \n     786A    145.793503   787A    146.105478   788A    146.169520  \n     789A    146.309167   790A    146.466498   791A    195.478276  \n     792A    195.500076   793A    195.557880   794A    195.857213  \n     795A    196.031401  \n\n    Final Occupation by Irrep:\n              A \n    DOCC [    35 ]\n\n  @DF-RKS Final Energy:  -467.36034970404432\n\n   => Energetics <=\n\n    Nuclear Repulsion Energy =            501.2235939031376688\n    One-Electron Energy =               -1626.2499114605375325\n    Two-Electron Energy =                 688.3004336260767104\n    DFT Exchange-Correlation Energy =     -30.6341314327212757\n    Empirical Dispersion Energy =          -0.0003343400000000\n    VV10 Nonlocal Energy =                  0.0000000000000000\n    Total Energy =                       -467.3603497040443813\n\nComputation Completed\n\n\nProperties will be evaluated at   0.000000,   0.000000,   0.000000 [a0]\n\nProperties computed using the SCF density matrix\n\n  Nuclear Dipole Moment: [e a0]\n     X:    -0.8453      Y:    -1.3883      Z:    -0.6829\n\n  Electronic Dipole Moment: [e a0]\n     X:     1.4685      Y:     0.6566      Z:     0.3189\n\n  Dipole Moment: [e a0]\n     X:     0.6232      Y:    -0.7317      Z:    -0.3639     Total:     1.0277\n\n  Dipole Moment: [D]\n     X:     1.5840      Y:    -1.8597      Z:    -0.9250     Total:     2.6122\n\n\n*** tstop() called on z135 at Sun Apr 25 14:21:34 2021\nModule time:\n\tuser time   =     854.98 seconds =      14.25 minutes\n\tsystem time =      26.27 seconds =       0.44 minutes\n\ttotal time  =         79 seconds =       1.32 minutes\nTotal time:\n\tuser time   =     854.98 seconds =      14.25 minutes\n\tsystem time =      26.27 seconds =       0.44 minutes\n\ttotal time  =         79 seconds =       1.32 minutes\n\n    Psi4 stopped on: Sunday, 25 April 2021 02:21PM\n    Psi4 wall time for execution: 0:01:18.95\n\n*** Psi4 exiting successfully. Buy a developer a beer!\n",
 "stderr": null,
 "success": true,
 "error": null,
 "tag": "m062x-d3 def2-qzvpd c3a_a"
}