{
 "id": null,
 "schema_name": "qcschema_output",
 "schema_version": 1,
 "molecule": {
  "validated": true,
  "symbols": [
   "C",
   "C",
   "C",
   "C",
   "C",
   "N",
   "N",
   "N",
   "N",
   "N",
   "O",
   "H",
   "H",
   "H",
   "H",
   "H",
   "C",
   "C",
   "C",
   "C",
   "N",
   "N",
   "N",
   "O",
   "H",
   "H",
   "H",
   "H",
   "H"
  ],
  "geometry": [
   -2.811399463448751,
   1.6087221422380076,
   0.0,
   -2.303939968622808,
   -2.999758629094373,
   0.0,
   -6.165332634064441,
   -1.4453303895287786,
   0.0,
   -5.448476366728766,
   1.0486621207099458,
   0.0,
   -9.426070181350926,
   1.1020468837541295,
   0.0,
   -1.376405694464342,
   -0.6015261005370985,
   0.0,
   -4.709153145487523,
   -3.5278312564968113,
   0.0,
   -7.541965991116336,
   2.6074650762559752,
   0.0,
   -8.722424989358327,
   -1.4035561037994078,
   0.0,
   -0.5990441760437587,
   -4.861318386652253,
   0.0,
   -1.7596421527071895,
   3.640532995616759,
   0.0,
   0.510644578799838,
   -0.3459652085085584,
   0.0,
   -11.374954183166212,
   1.6486539449950572,
   0.0,
   -9.84039074463143,
   -2.909732076477562,
   0.0,
   -1.2545901689650794,
   -6.615955550305602,
   0.0,
   1.2657318953796497,
   -4.546049707963747,
   0.0,
   5.7738001793097045,
   -1.6318879320862265,
   0.0,
   9.399285104427557,
   1.1014761864642413,
   0.0,
   7.930160991891255,
   3.1563076835033197,
   0.0,
   5.232531594373196,
   2.717335642916219,
   0.0,
   8.366770874821535,
   -1.237776099991369,
   0.0,
   4.270156439639664,
   0.42708395489372997,
   0.0,
   3.6640116670900613,
   4.663711978163021,
   0.0,
   5.000592278912879,
   -3.783157822485794,
   0.0,
   9.43399937335222,
   -2.784679450125391,
   0.0,
   11.426339517148532,
   1.1945281906079102,
   0.0,
   8.702735834036055,
   5.027762047054095,
   0.0,
   4.318966175734114,
   6.418774330194599,
   0.0,
   1.7821468023141376,
   4.376148574199853,
   0.0
  ],
  "name": "C9H10N8O2",
  "molecular_charge": 0.0,
  "molecular_multiplicity": 1,
  "masses": [
   12.0,
   12.0,
   12.0,
   12.0,
   12.0,
   14.00307400443,
   14.00307400443,
   14.00307400443,
   14.00307400443,
   14.00307400443,
   15.99491461957,
   1.00782503223,
   1.00782503223,
   1.00782503223,
   1.00782503223,
   1.00782503223,
   12.0,
   12.0,
   12.0,
   12.0,
   14.00307400443,
   14.00307400443,
   14.00307400443,
   15.99491461957,
   1.00782503223,
   1.00782503223,
   1.00782503223,
   1.00782503223,
   1.00782503223
  ],
  "real": [
   true,
   true,
   true,
   true,
   true,
   true,
   true,
   true,
   true,
   true,
   true,
   true,
   true,
   true,
   true,
   true,
   true,
   true,
   true,
   true,
   true,
   true,
   true,
   true,
   true,
   true,
   true,
   true,
   true
  ],
  "atom_labels": [
   "",
   "",
   "",
   "",
   "",
   "",
   "",
   "",
   "",
   "",
   "",
   "",
   "",
   "",
   "",
   "",
   "",
   "",
   "",
   "",
   "",
   "",
   "",
   "",
   "",
   "",
   "",
   "",
   ""
  ],
  "atomic_numbers": [
   6,
   6,
   6,
   6,
   6,
   7,
   7,
   7,
   7,
   7,
   8,
   1,
   1,
   1,
   1,
   1,
   6,
   6,
   6,
   6,
   7,
   7,
   7,
   8,
   1,
   1,
   1,
   1,
   1
  ],
  "mass_numbers": [
   12,
   12,
   12,
   12,
   12,
   14,
   14,
   14,
   14,
   14,
   16,
   1,
   1,
   1,
   1,
   1,
   12,
   12,
   12,
   12,
   14,
   14,
   14,
   16,
   1,
   1,
   1,
   1,
   1
  ],
  "fragments": [
   [
    0,
    1,
    2,
    3,
    4,
    5,
    6,
    7,
    8,
    9,
    10,
    11,
    12,
    13,
    14,
    15,
    16,
    17,
    18,
    19,
    20,
    21,
    22,
    23,
    24,
    25,
    26,
    27,
    28
   ]
  ],
  "fragment_charges": [
   0.0
  ],
  "fragment_multiplicities": [
   1
  ],
  "fix_com": false,
  "fix_orientation": false,
  "provenance": {
   "creator": "QCElemental",
   "version": "v0.19.0",
   "routine": "qcelemental.molparse.from_string"
  }
 },
 "driver": "energy",
 "model": {
  "method": "b97m-v",
  "basis": "pcseg-1"
 },
 "keywords": {},
 "protocols": {},
 "extras": {
  "qcvars": {
   "CURRENT DIPOLE X": 6.009629904459411,
   "CURRENT DIPOLE Y": -0.8742538589167749,
   "CURRENT DIPOLE Z": 0.0,
   "CURRENT ENERGY": -937.2121771150629,
   "CURRENT REFERENCE ENERGY": -937.2121771150629,
   "DFT FUNCTIONAL TOTAL ENERGY": -937.2121771150629,
   "DFT TOTAL ENERGY": -937.2121771150629,
   "DFT VV10 ENERGY": 0.5153138214451439,
   "DFT XC ENERGY": -125.87654893383962,
   "NUCLEAR REPULSION ENERGY": 1391.9769095425527,
   "ONE-ELECTRON ENERGY": -4039.534992757978,
   "PCM POLARIZATION ENERGY": 0.0,
   "PE ENERGY": 0.0,
   "SCF DIPOLE X": 6.009629904459411,
   "SCF DIPOLE Y": -0.8742538589167749,
   "SCF DIPOLE Z": 0.0,
   "SCF ITERATION ENERGY": -937.2121771150629,
   "SCF ITERATIONS": 11.0,
   "SCF TOTAL ENERGY": -937.2121771150629,
   "TWO-ELECTRON ENERGY": 1835.707141212757,
   "XC GRID RADIAL POINTS": 75.0,
   "XC GRID SPHERICAL POINTS": 302.0,
   "XC GRID TOTAL POINTS": 599341.0,
   "CURRENT DIPOLE": [
    2.364370332839008,
    -0.34395793422470033,
    0.0
   ],
   "SCF DIPOLE": [
    2.364370332839008,
    -0.34395793422470033,
    0.0
   ]
  }
 },
 "provenance": {
  "creator": "Psi4",
  "version": "1.4a2.dev923",
  "routine": "psi4.schema_runner.run_qcschema",
  "qcengine_version": "v0.17.0",
  "nthreads": 16,
  "cpu": "AMD EPYC Processor (with IBPB)",
  "hostname": "bignimbus",
  "wall_time": 100.56239342689514,
  "username": "ubuntu",
  "memory": 256.0
 },
 "properties": {
  "calcinfo_nbasis": 316,
  "calcinfo_nmo": 316,
  "calcinfo_nalpha": 68,
  "calcinfo_nbeta": 68,
  "calcinfo_natom": 29,
  "nuclear_repulsion_energy": 1391.9769095425527,
  "return_energy": -937.2121771150629,
  "scf_one_electron_energy": -4039.534992757978,
  "scf_two_electron_energy": 1835.707141212757,
  "scf_vv10_energy": 0.5153138214451439,
  "scf_xc_energy": -125.87654893383962,
  "scf_dipole_moment": [
   2.364370332839008,
   -0.34395793422470033,
   0.0
  ],
  "scf_total_energy": -937.2121771150629,
  "scf_iterations": 11
 },
 "wavefunction": null,
 "return_result": -937.2121771150629,
 "stdout": "\n    -----------------------------------------------------------------------\n          Psi4: An Open-Source Ab Initio Electronic Structure Package\n                               Psi4 1.4a2.dev923 \n\n                         Git: Rev {master} 5de566e \n\n\n    D. G. A. Smith, L. A. Burns, A. C. Simmonett, R. M. Parrish,\n    M. C. Schieber, R. Galvelis, P. Kraus, H. Kruse, R. Di Remigio,\n    A. Alenaizan, A. M. James, S. Lehtola, J. P. Misiewicz, M. Scheurer,\n    R. A. Shaw, J. B. Schriber, Y. Xie, Z. L. Glick, D. A. Sirianni,\n    J. S. O'Brien, J. M. Waldrop, A. Kumar, E. G. Hohenstein,\n    B. P. Pritchard, B. R. Brooks, H. F. Schaefer III, A. Yu. Sokolov,\n    K. Patkowski, A. E. DePrince III, U. Bozkaya, R. A. King,\n    F. A. Evangelista, J. M. Turney, T. D. Crawford, C. D. Sherrill,\n    J. Chem. Phys. 152(18) 184108 (2020). https://doi.org/10.1063/5.0006002\n\n                            Additional Code Authors\n    E. T. Seidl, C. L. Janssen, E. F. Valeev, M. L. Leininger,\n    J. F. Gonthier, R. M. Richard, H. R. McAlexander, M. Saitow, X. Wang,\n    P. Verma, and M. H. Lechner\n\n             Previous Authors, Complete List of Code Contributors,\n                       and Citations for Specific Modules\n    https://github.com/psi4/psi4/blob/master/codemeta.json\n    https://github.com/psi4/psi4/graphs/contributors\n    http://psicode.org/psi4manual/master/introduction.html#citing-psifour\n\n    -----------------------------------------------------------------------\n\n\n    Psi4 started on: Sunday, 25 April 2021 09:23AM\n\n    Process ID: 3999951\n    Host:       bignimbus\n    PSIDATADIR: /home/ubuntu/pk/Applications/miniconda3/envs/psi4-1.4a2.dev923/share/psi4\n    Memory:     238.4 GiB\n    Threads:    16\n    \n  ==> Input QCSchema <==\n\n--------------------------------------------------------------------------\n{'driver': 'energy',\n 'extras': {},\n 'id': None,\n 'keywords': {},\n 'model': {'basis': 'pcseg-1', 'method': 'b97m-v'},\n 'molecule': {'atom_labels': ['', '', '', '', '', '', '', '', '', '', '', '', '', '', '', '', '', '', '', '', '', '',\n                              '', '', '', '', '', '', ''],\n              'atomic_numbers': [6, 6, 6, 6, 6, 7, 7, 7, 7, 7, 8, 1, 1, 1, 1, 1, 6, 6, 6, 6, 7, 7, 7, 8, 1, 1, 1, 1, 1],\n              'fix_com': False,\n              'fix_orientation': False,\n              'fragment_charges': [0.0],\n              'fragment_multiplicities': [1],\n              'fragments': [[0, 1, 2, 3, 4, 5, 6, 7, 8, 9, 10, 11, 12, 13, 14, 15, 16, 17, 18, 19, 20, 21, 22, 23, 24,\n                             25, 26, 27, 28]],\n              'geometry': [-2.8113994634487516, 1.6087221422380074, 0.0, -2.3039399686228084, -2.9997586290943734, 0.0,\n                           -6.165332634064442, -1.4453303895287788, 0.0, -5.448476366728767, 1.0486621207099456, 0.0,\n                           -9.426070181350926, 1.1020468837541293, 0.0, -1.3764056944643424, -0.6015261005370988, 0.0,\n                           -4.709153145487524, -3.5278312564968117, 0.0, -7.541965991116337, 2.607465076255975, 0.0,\n                           -8.722424989358327, -1.403556103799408, 0.0, -0.5990441760437591, -4.861318386652253, 0.0,\n                           -1.75964215270719, 3.6405329956167587, 0.0, 0.5106445787998376, -0.34596520850855866, 0.0,\n                           -11.374954183166212, 1.648653944995057, 0.0, -9.84039074463143, -2.9097320764775625, 0.0,\n                           -1.2545901689650798, -6.615955550305602, 0.0, 1.2657318953796493, -4.546049707963747, 0.0,\n                           5.773800179309704, -1.6318879320862267, 0.0, 9.399285104427557, 1.101476186464241, 0.0,\n                           7.930160991891254, 3.1563076835033193, 0.0, 5.232531594373195, 2.7173356429162188, 0.0,\n                           8.366770874821535, -1.2377760999913692, 0.0, 4.270156439639663, 0.4270839548937297, 0.0,\n                           3.664011667090061, 4.663711978163021, 0.0, 5.000592278912878, -3.7831578224857942, 0.0,\n                           9.43399937335222, -2.7846794501253913, 0.0, 11.426339517148532, 1.19452819060791, 0.0,\n                           8.702735834036055, 5.027762047054095, 0.0, 4.318966175734113, 6.418774330194599, 0.0,\n                           1.7821468023141371, 4.376148574199853, 0.0],\n              'mass_numbers': [12, 12, 12, 12, 12, 14, 14, 14, 14, 14, 16, 1, 1, 1, 1, 1, 12, 12, 12, 12, 14, 14, 14,\n                               16, 1, 1, 1, 1, 1],\n              'masses': [12.0, 12.0, 12.0, 12.0, 12.0, 14.00307400443, 14.00307400443, 14.00307400443, 14.00307400443,\n                         14.00307400443, 15.99491461957, 1.00782503223, 1.00782503223, 1.00782503223, 1.00782503223,\n                         1.00782503223, 12.0, 12.0, 12.0, 12.0, 14.00307400443, 14.00307400443, 14.00307400443,\n                         15.99491461957, 1.00782503223, 1.00782503223, 1.00782503223, 1.00782503223, 1.00782503223],\n              'molecular_charge': 0.0,\n              'molecular_multiplicity': 1,\n              'name': 'C9H10N8O2',\n              'provenance': {'creator': 'QCElemental',\n                             'routine': 'qcelemental.molparse.from_string',\n                             'version': 'v0.19.0'},\n              'real': [True, True, True, True, True, True, True, True, True, True, True, True, True, True, True, True,\n                       True, True, True, True, True, True, True, True, True, True, True, True, True],\n              'symbols': ['C', 'C', 'C', 'C', 'C', 'N', 'N', 'N', 'N', 'N', 'O', 'H', 'H', 'H', 'H', 'H', 'C', 'C', 'C',\n                          'C', 'N', 'N', 'N', 'O', 'H', 'H', 'H', 'H', 'H'],\n              'validated': True},\n 'protocols': {},\n 'provenance': {'creator': 'QCElemental', 'routine': 'qcelemental.models.results', 'version': 'v0.17.0'},\n 'schema_name': 'qcschema_input',\n 'schema_version': 1}\n--------------------------------------------------------------------------\n\nScratch directory: /home/ubuntu/pk/scratch/tmp1018haip_psi_scratch/\n\n*** tstart() called on bignimbus\n*** at Sun Apr 25 09:23:28 2021\n\n   => Loading Basis Set <=\n\n    Name: PCSEG-1\n    Role: ORBITAL\n    Keyword: BASIS\n    atoms 1-5, 17-20   entry C          line    90 file /home/ubuntu/pk/Applications/miniconda3/envs/psi4-1.4a2.dev923/share/psi4/basis/pcseg-1.gbs \n    atoms 6-10, 21-23  entry N          line   111 file /home/ubuntu/pk/Applications/miniconda3/envs/psi4-1.4a2.dev923/share/psi4/basis/pcseg-1.gbs \n    atoms 11, 24       entry O          line   132 file /home/ubuntu/pk/Applications/miniconda3/envs/psi4-1.4a2.dev923/share/psi4/basis/pcseg-1.gbs \n    atoms 12-16, 25-29 entry H          line    13 file /home/ubuntu/pk/Applications/miniconda3/envs/psi4-1.4a2.dev923/share/psi4/basis/pcseg-1.gbs \n\n\n         ---------------------------------------------------------\n                                   SCF\n               by Justin Turney, Rob Parrish, Andy Simmonett\n                          and Daniel G. A. Smith\n                              RKS Reference\n                       16 Threads, 244140 MiB Core\n         ---------------------------------------------------------\n\n  ==> Geometry <==\n\n    Molecular point group: cs\n    Full point group: Cs\n\n    Geometry (in Bohr), charge = 0, multiplicity = 1:\n\n       Center              X                  Y                   Z               Mass       \n    ------------   -----------------  -----------------  -----------------  -----------------\n         C           -2.811399463449     1.608722142238     0.000000000000    12.000000000000\n         C           -2.303939968623    -2.999758629094     0.000000000000    12.000000000000\n         C           -6.165332634064    -1.445330389529     0.000000000000    12.000000000000\n         C           -5.448476366729     1.048662120710     0.000000000000    12.000000000000\n         C           -9.426070181351     1.102046883754     0.000000000000    12.000000000000\n         N           -1.376405694464    -0.601526100537     0.000000000000    14.003074004430\n         N           -4.709153145488    -3.527831256497     0.000000000000    14.003074004430\n         N           -7.541965991116     2.607465076256     0.000000000000    14.003074004430\n         N           -8.722424989358    -1.403556103799     0.000000000000    14.003074004430\n         N           -0.599044176044    -4.861318386652     0.000000000000    14.003074004430\n         O           -1.759642152707     3.640532995617     0.000000000000    15.994914619570\n         H            0.510644578800    -0.345965208509     0.000000000000     1.007825032230\n         H          -11.374954183166     1.648653944995     0.000000000000     1.007825032230\n         H           -9.840390744631    -2.909732076478     0.000000000000     1.007825032230\n         H           -1.254590168965    -6.615955550306     0.000000000000     1.007825032230\n         H            1.265731895380    -4.546049707964     0.000000000000     1.007825032230\n         C            5.773800179310    -1.631887932086     0.000000000000    12.000000000000\n         C            9.399285104428     1.101476186464     0.000000000000    12.000000000000\n         C            7.930160991891     3.156307683503     0.000000000000    12.000000000000\n         C            5.232531594373     2.717335642916     0.000000000000    12.000000000000\n         N            8.366770874822    -1.237776099991     0.000000000000    14.003074004430\n         N            4.270156439640     0.427083954894     0.000000000000    14.003074004430\n         N            3.664011667090     4.663711978163     0.000000000000    14.003074004430\n         O            5.000592278913    -3.783157822486     0.000000000000    15.994914619570\n         H            9.433999373352    -2.784679450125     0.000000000000     1.007825032230\n         H           11.426339517149     1.194528190608     0.000000000000     1.007825032230\n         H            8.702735834036     5.027762047054     0.000000000000     1.007825032230\n         H            4.318966175734     6.418774330195     0.000000000000     1.007825032230\n         H            1.782146802314     4.376148574200     0.000000000000     1.007825032230\n\n  Running in cs symmetry.\n\n  Rotational constants: A =      0.03012  B =      0.00652  C =      0.00536 [cm^-1]\n  Rotational constants: A =    902.90857  B =    195.51287  C =    160.71267 [MHz]\n  Nuclear repulsion = 1391.976909542552676\n\n  Charge       = 0\n  Multiplicity = 1\n  Electrons    = 136\n  Nalpha       = 68\n  Nbeta        = 68\n\n  ==> Algorithm <==\n\n  SCF Algorithm Type is DF.\n  DIIS enabled.\n  MOM disabled.\n  Fractional occupation disabled.\n  Guess Type is SAD.\n  Energy threshold   = 1.00e-06\n  Density threshold  = 1.00e-06\n  Integral threshold = 0.00e+00\n\n  ==> Primary Basis <==\n\n  Basis Set: PCSEG-1\n    Blend: PCSEG-1\n    Number of shells: 144\n    Number of basis function: 316\n    Number of Cartesian functions: 335\n    Spherical Harmonics?: true\n    Max angular momentum: 2\n\n  ==> DFT Potential <==\n\n   => Composite Functional: B97M-V <= \n\n    B97M-V GGA Exchange-Correlation Functional\n\n    N. Mardirossian and M. Head-Gordon, J. Chem. Phys. 142, 074111 (2015)\n\n    Deriv               =              1\n    GGA                 =           TRUE\n    Meta                =           TRUE\n\n    Exchange Hybrid     =          FALSE\n    MP2 Hybrid          =          FALSE\n\n   => Exchange-Correlation Functionals <=\n\n    1.0000   B97M-V exchange-correlation functional\n\n   => LibXC Density Thresholds  <==\n\n    XC_MGGA_XC_B97M_V:  1.00E-23 \n\n   => VV10 Non-Local Parameters <=\n\n    VV10 B              =     6.0000E+00\n    VV10 C              =     1.0000E-02\n\n   => Molecular Quadrature <=\n\n    Radial Scheme          =       TREUTLER\n    Pruning Scheme         =           NONE\n    Nuclear Scheme         =       TREUTLER\n\n    BS radius alpha        =              1\n    Pruning alpha          =              1\n    Radial Points          =             75\n    Spherical Points       =            302\n    Total Points           =         599341\n    Total Blocks           =           4429\n    Max Points             =            256\n    Max Functions          =            236\n    Weights Tolerance      =       1.00E-15\n\n   => Loading Basis Set <=\n\n    Name: (PCSEG-1 AUX)\n    Role: JKFIT\n    Keyword: DF_BASIS_SCF\n    atoms 1-5, 17-20   entry C          line   198 file /home/ubuntu/pk/Applications/miniconda3/envs/psi4-1.4a2.dev923/share/psi4/basis/def2-universal-jkfit.gbs \n    atoms 6-10, 21-23  entry N          line   258 file /home/ubuntu/pk/Applications/miniconda3/envs/psi4-1.4a2.dev923/share/psi4/basis/def2-universal-jkfit.gbs \n    atoms 11, 24       entry O          line   318 file /home/ubuntu/pk/Applications/miniconda3/envs/psi4-1.4a2.dev923/share/psi4/basis/def2-universal-jkfit.gbs \n    atoms 12-16, 25-29 entry H          line    18 file /home/ubuntu/pk/Applications/miniconda3/envs/psi4-1.4a2.dev923/share/psi4/basis/def2-universal-jkfit.gbs \n\n  ==> Integral Setup <==\n\n  DFHelper Memory: AOs need 0.902 GiB; user supplied 172.485 GiB. Using in-core AOs.\n\n  ==> MemDFJK: Density-Fitted J/K Matrices <==\n\n    J tasked:                   Yes\n    K tasked:                    No\n    wK tasked:                   No\n    OpenMP threads:              16\n    Memory [MiB]:            176624\n    Algorithm:                 Core\n    Schwarz Cutoff:           1E-12\n    Mask sparsity (%):      29.6287\n    Fitting Condition:        1E-10\n\n   => Auxiliary Basis Set <=\n\n  Basis Set: (PCSEG-1 AUX)\n    Blend: DEF2-UNIVERSAL-JKFIT\n    Number of shells: 535\n    Number of basis function: 1625\n    Number of Cartesian functions: 1931\n    Spherical Harmonics?: true\n    Max angular momentum: 4\n\n  Cached 100.0% of DFT collocation blocks in 6.329 [GiB].\n\n  Minimum eigenvalue in the overlap matrix is 8.5746581597E-04.\n  Reciprocal condition number of the overlap matrix is 1.3883370983E-04.\n    Using symmetric orthogonalization.\n\n  ==> Pre-Iterations <==\n\n  SCF Guess: Superposition of Atomic Densities via on-the-fly atomic UHF (no occupation information).\n\n   -------------------------\n    Irrep   Nso     Nmo    \n   -------------------------\n     A'       230     230 \n     A\"        86      86 \n   -------------------------\n    Total     316     316\n   -------------------------\n\n  ==> Iterations <==\n\n                           Total Energy        Delta E     RMS |[F,P]|\n\n   @DF-RKS iter SAD:  -937.17024281880254   -9.37170e+02   0.00000e+00 \n   @DF-RKS iter   1:  -936.11985999501394    1.05038e+00   6.22709e-03 DIIS\n   @DF-RKS iter   2:  -935.58366570933390    5.36194e-01   7.64116e-03 DIIS\n   @DF-RKS iter   3:  -937.13086447670162   -1.54720e+00   1.67910e-03 DIIS\n   @DF-RKS iter   4:  -937.20483334001710   -7.39689e-02   5.12120e-04 DIIS\n   @DF-RKS iter   5:  -937.21035762082818   -5.52428e-03   2.44672e-04 DIIS\n   @DF-RKS iter   6:  -937.21198549801227   -1.62788e-03   7.79028e-05 DIIS\n   @DF-RKS iter   7:  -937.21215735748626   -1.71859e-04   2.69232e-05 DIIS\n   @DF-RKS iter   8:  -937.21217580501582   -1.84475e-05   7.01782e-06 DIIS\n   @DF-RKS iter   9:  -937.21217674803336   -9.43018e-07   3.80160e-06 DIIS\n   @DF-RKS iter  10:  -937.21217708890333   -3.40870e-07   1.02389e-06 DIIS\n   @DF-RKS iter  11:  -937.21217711506290   -2.61596e-08   2.67691e-07 DIIS\n  Energy and wave function converged.\n\n\n  ==> Post-Iterations <==\n\n    Orbital Energies [Eh]\n    ---------------------\n\n    Doubly Occupied:                                                      \n\n       1Ap   -19.106808     2Ap   -19.089681     3Ap   -14.394668  \n       4Ap   -14.368302     5Ap   -14.353469     6Ap   -14.350120  \n       7Ap   -14.329667     8Ap   -14.317841     9Ap   -14.296913  \n      10Ap   -14.295750    11Ap   -10.309162    12Ap   -10.286004  \n      13Ap   -10.284816    14Ap   -10.267642    15Ap   -10.263174  \n      16Ap   -10.230557    17Ap   -10.219907    18Ap   -10.200243  \n      19Ap   -10.168013    20Ap    -1.068932    21Ap    -1.039101  \n      22Ap    -1.014940    23Ap    -0.990230    24Ap    -0.986888  \n      25Ap    -0.961748    26Ap    -0.890085    27Ap    -0.888363  \n      28Ap    -0.885530    29Ap    -0.860657    30Ap    -0.794121  \n      31Ap    -0.736937    32Ap    -0.667721    33Ap    -0.656067  \n      34Ap    -0.643126    35Ap    -0.626126    36Ap    -0.592845  \n      37Ap    -0.567951    38Ap    -0.563577    39Ap    -0.558735  \n      40Ap    -0.526711    41Ap    -0.512636    42Ap    -0.506363  \n      43Ap    -0.486981    44Ap    -0.475621    45Ap    -0.453270  \n       1App   -0.452905    46Ap    -0.443406     2App   -0.440409  \n      47Ap    -0.432829    48Ap    -0.420275    49Ap    -0.407791  \n      50Ap    -0.397545     3App   -0.394444    51Ap    -0.387375  \n       4App   -0.376900     5App   -0.355377     6App   -0.347177  \n      52Ap    -0.284808     7App   -0.277657    53Ap    -0.271981  \n      54Ap    -0.257499     8App   -0.251479     9App   -0.250257  \n      10App   -0.244513    11App   -0.237313    55Ap    -0.234263  \n      56Ap    -0.225635    12App   -0.178124  \n\n    Virtual:                                                              \n\n      13App   -0.070864    14App   -0.016285    15App   -0.008200  \n      16App    0.002690    57Ap     0.003873    58Ap     0.034205  \n      17App    0.041703    59Ap     0.045918    60Ap     0.056593  \n      61Ap     0.065949    62Ap     0.089287    63Ap     0.094653  \n      18App    0.105835    64Ap     0.127372    65Ap     0.135599  \n      66Ap     0.163572    19App    0.166621    67Ap     0.168672  \n      68Ap     0.186358    69Ap     0.199020    70Ap     0.200586  \n      71Ap     0.219999    72Ap     0.238067    73Ap     0.246484  \n      74Ap     0.255587    75Ap     0.262231    76Ap     0.281925  \n      77Ap     0.293783    78Ap     0.298364    79Ap     0.308871  \n      80Ap     0.316343    81Ap     0.346241    82Ap     0.352590  \n      20App    0.359025    83Ap     0.364679    84Ap     0.369243  \n      21App    0.385266    85Ap     0.396313    86Ap     0.401408  \n      87Ap     0.409673    88Ap     0.414511    89Ap     0.432303  \n      22App    0.439669    23App    0.447418    90Ap     0.459985  \n      24App    0.466690    91Ap     0.470613    92Ap     0.479915  \n      93Ap     0.485855    94Ap     0.493430    25App    0.498310  \n      95Ap     0.502243    96Ap     0.518928    97Ap     0.529211  \n      26App    0.533167    27App    0.537562    98Ap     0.538722  \n      99Ap     0.559314   100Ap     0.570841   101Ap     0.588899  \n     102Ap     0.593426    28App    0.607638   103Ap     0.628319  \n     104Ap     0.638350   105Ap     0.659731   106Ap     0.673237  \n     107Ap     0.678649   108Ap     0.683498   109Ap     0.695604  \n      29App    0.698357    30App    0.708961    31App    0.721634  \n     110Ap     0.723485   111Ap     0.726292   112Ap     0.737907  \n     113Ap     0.755876    32App    0.763980   114Ap     0.772219  \n     115Ap     0.778002    33App    0.785261   116Ap     0.808725  \n     117Ap     0.818687    34App    0.834765   118Ap     0.838573  \n     119Ap     0.856532   120Ap     0.860150    35App    0.871249  \n     121Ap     0.888261   122Ap     0.923051    36App    0.932710  \n     123Ap     0.933256   124Ap     0.943876   125Ap     0.970662  \n      37App    0.989640   126Ap     0.990746   127Ap     1.014344  \n     128Ap     1.019623    38App    1.026267   129Ap     1.049345  \n     130Ap     1.104241   131Ap     1.113150   132Ap     1.140289  \n     133Ap     1.158907   134Ap     1.176265   135Ap     1.203195  \n      39App    1.211901   136Ap     1.218665    40App    1.218694  \n     137Ap     1.240774    41App    1.241558   138Ap     1.267344  \n     139Ap     1.275916   140Ap     1.307020   141Ap     1.310268  \n      42App    1.320565   142Ap     1.324728    43App    1.330065  \n      44App    1.342727    45App    1.360614    46App    1.384420  \n     143Ap     1.388802    47App    1.392532    48App    1.415600  \n     144Ap     1.430062    49App    1.434686    50App    1.444917  \n      51App    1.460080   145Ap     1.479826    52App    1.486368  \n      53App    1.506201   146Ap     1.507673    54App    1.518801  \n     147Ap     1.522152   148Ap     1.577359   149Ap     1.604857  \n     150Ap     1.632235   151Ap     1.703389   152Ap     1.714378  \n     153Ap     1.722702   154Ap     1.744103   155Ap     1.791984  \n     156Ap     1.831546   157Ap     1.835730    55App    1.838883  \n     158Ap     1.851603   159Ap     1.867792    56App    1.885130  \n     160Ap     1.888089   161Ap     1.905470    57App    1.915324  \n     162Ap     1.933484    58App    1.941576   163Ap     1.946266  \n     164Ap     1.955259   165Ap     1.988250    59App    1.993065  \n     166Ap     1.998603   167Ap     2.021882   168Ap     2.026789  \n     169Ap     2.044950   170Ap     2.064488    60App    2.074620  \n     171Ap     2.078203   172Ap     2.091116   173Ap     2.103097  \n      61App    2.104785   174Ap     2.131056   175Ap     2.164176  \n      62App    2.171750   176Ap     2.190305    63App    2.194439  \n     177Ap     2.221923    64App    2.223940   178Ap     2.227050  \n      65App    2.241570   179Ap     2.264672    66App    2.278438  \n      67App    2.286162   180Ap     2.301718   181Ap     2.309195  \n     182Ap     2.327054   183Ap     2.343478    68App    2.376056  \n      69App    2.379204   184Ap     2.381798   185Ap     2.388885  \n     186Ap     2.406573    70App    2.410414    71App    2.423415  \n     187Ap     2.435660   188Ap     2.482546    72App    2.489731  \n      73App    2.496105   189Ap     2.503767   190Ap     2.513320  \n     191Ap     2.533694    74App    2.550494   192Ap     2.561686  \n     193Ap     2.587180    75App    2.597372   194Ap     2.599628  \n     195Ap     2.639427   196Ap     2.651278    76App    2.656662  \n     197Ap     2.670190    77App    2.685778    78App    2.700925  \n     198Ap     2.723076    79App    2.733839   199Ap     2.742925  \n      80App    2.747826    81App    2.760359   200Ap     2.761591  \n     201Ap     2.804089   202Ap     2.825033    82App    2.836375  \n     203Ap     2.861338    83App    2.871422   204Ap     2.897295  \n     205Ap     2.909512    84App    2.933916   206Ap     2.965870  \n      85App    2.974321    86App    3.016215   207Ap     3.066789  \n     208Ap     3.079160   209Ap     3.083974   210Ap     3.107935  \n     211Ap     3.121397   212Ap     3.168518   213Ap     3.194353  \n     214Ap     3.238414   215Ap     3.253138   216Ap     3.268026  \n     217Ap     3.343001   218Ap     3.384003   219Ap     3.404345  \n     220Ap     3.432981   221Ap     3.462482   222Ap     3.494648  \n     223Ap     3.544152   224Ap     3.560738   225Ap     3.572396  \n     226Ap     3.781916   227Ap     3.795965   228Ap     3.853257  \n     229Ap     3.876605   230Ap     3.931689  \n\n    Final Occupation by Irrep:\n             Ap   App \n    DOCC [    56,   12 ]\n\n  @DF-RKS Final Energy:  -937.21217711506290\n\n   => Energetics <=\n\n    Nuclear Repulsion Energy =           1391.9769095425526757\n    One-Electron Energy =               -4039.5349927579782161\n    Two-Electron Energy =                1835.7071412127570511\n    DFT Exchange-Correlation Energy =    -125.8765489338396151\n    Empirical Dispersion Energy =           0.0000000000000000\n    VV10 Nonlocal Energy =                  0.5153138214451439\n    Total Energy =                       -937.2121771150629002\n\nComputation Completed\n\n\nProperties will be evaluated at   0.000000,   0.000000,   0.000000 [a0]\n\nProperties computed using the SCF density matrix\n\n  Nuclear Dipole Moment: [e a0]\n     X:     7.4452      Y:     0.7317      Z:     0.0000\n\n  Electronic Dipole Moment: [e a0]\n     X:    -5.0808      Y:    -1.0757      Z:     0.0000\n\n  Dipole Moment: [e a0]\n     X:     2.3644      Y:    -0.3440      Z:     0.0000     Total:     2.3893\n\n  Dipole Moment: [D]\n     X:     6.0096      Y:    -0.8743      Z:     0.0000     Total:     6.0729\n\n\n*** tstop() called on bignimbus at Sun Apr 25 09:25:03 2021\nModule time:\n\tuser time   =    1424.63 seconds =      23.74 minutes\n\tsystem time =      18.43 seconds =       0.31 minutes\n\ttotal time  =         95 seconds =       1.58 minutes\nTotal time:\n\tuser time   =    1424.63 seconds =      23.74 minutes\n\tsystem time =      18.43 seconds =       0.31 minutes\n\ttotal time  =         95 seconds =       1.58 minutes\n\n    Psi4 stopped on: Sunday, 25 April 2021 09:25AM\n    Psi4 wall time for execution: 0:01:35.66\n\n*** Psi4 exiting successfully. Buy a developer a beer!\n",
 "stderr": null,
 "success": true,
 "error": null,
 "tag": "b97m-v pcseg-1 gcgc_b"
}