{
 "id": null,
 "schema_name": "qcschema_output",
 "schema_version": 1,
 "molecule": {
  "validated": true,
  "symbols": [
   "N",
   "C",
   "N",
   "C",
   "C",
   "O",
   "N",
   "C",
   "N",
   "N",
   "C",
   "H",
   "H",
   "H",
   "H",
   "H"
  ],
  "geometry": [
   1.9795091944628955,
   2.1064834459358144,
   -3.2710258001379717,
   3.442157215567254,
   0.04479224306132246,
   -3.8587306251553546,
   3.037755824719278,
   -1.9205229274148177,
   -2.447105209438357,
   1.1329118902577873,
   -1.157073572729854,
   -0.8011537541645827,
   -0.012262141769655663,
   -2.415631172284768,
   1.2151840216989083,
   0.2787556815508495,
   -4.558580598553946,
   1.9767436502584184,
   -1.7942738780763892,
   -0.8301509530256518,
   2.4756313473792826,
   -2.3895376075956043,
   1.6208238316931525,
   1.8860367962364304,
   -4.060055502500323,
   2.879381431248068,
   3.327897829960767,
   -1.3464087863428829,
   2.818910195233415,
   -0.06605029136148675,
   0.4469413067165973,
   1.3279162822471884,
   -1.2830339161563362,
   1.9190379584482444,
   3.80723695884786,
   -4.140299817848581,
   -2.720239679550724,
   -1.6994249707362516,
   3.9722944387418746,
   4.817877834900553,
   0.1317196448323844,
   -5.370511525521616,
   -4.434221275340973,
   4.678400702683921,
   2.8233409544635233,
   -4.866968558070816,
   2.102703993684897,
   4.9095985969689675
  ],
  "name": "C5H5N5O",
  "molecular_charge": 0.0,
  "molecular_multiplicity": 1,
  "masses": [
   14.00307400443,
   12.0,
   14.00307400443,
   12.0,
   12.0,
   15.99491461957,
   14.00307400443,
   12.0,
   14.00307400443,
   14.00307400443,
   12.0,
   1.00782503223,
   1.00782503223,
   1.00782503223,
   1.00782503223,
   1.00782503223
  ],
  "real": [
   true,
   true,
   true,
   true,
   true,
   true,
   true,
   true,
   true,
   true,
   true,
   true,
   true,
   true,
   true,
   true
  ],
  "atom_labels": [
   "",
   "",
   "",
   "",
   "",
   "",
   "",
   "",
   "",
   "",
   "",
   "",
   "",
   "",
   "",
   ""
  ],
  "atomic_numbers": [
   7,
   6,
   7,
   6,
   6,
   8,
   7,
   6,
   7,
   7,
   6,
   1,
   1,
   1,
   1,
   1
  ],
  "mass_numbers": [
   14,
   12,
   14,
   12,
   12,
   16,
   14,
   12,
   14,
   14,
   12,
   1,
   1,
   1,
   1,
   1
  ],
  "fragments": [
   [
    0,
    1,
    2,
    3,
    4,
    5,
    6,
    7,
    8,
    9,
    10,
    11,
    12,
    13,
    14,
    15
   ]
  ],
  "fragment_charges": [
   0.0
  ],
  "fragment_multiplicities": [
   1
  ],
  "fix_com": false,
  "fix_orientation": false,
  "provenance": {
   "creator": "QCElemental",
   "version": "v0.19.0",
   "routine": "qcelemental.molparse.from_string"
  }
 },
 "driver": "energy",
 "model": {
  "method": "b3lyp-d3bj",
  "basis": "def2-svpd"
 },
 "keywords": {
  "guess": "SAP"
 },
 "protocols": {},
 "extras": {
  "qcvars": {
   "2-BODY DISPERSION CORRECTION ENERGY": -0.02954534,
   "B3LYP-D3(BJ) DISPERSION CORRECTION ENERGY": -0.02954534,
   "CURRENT DIPOLE X": -3.2355028245753052,
   "CURRENT DIPOLE Y": 6.240461030243973,
   "CURRENT DIPOLE Z": 0.8426947793938057,
   "CURRENT ENERGY": -542.2305341928112,
   "CURRENT REFERENCE ENERGY": -542.2305341928112,
   "DFT FUNCTIONAL TOTAL ENERGY": -542.2009888528112,
   "DFT TOTAL ENERGY": -542.2305341928112,
   "DFT VV10 ENERGY": 0.0,
   "DFT XC ENERGY": -58.336440092804445,
   "DISPERSION CORRECTION ENERGY": -0.02954534,
   "NUCLEAR REPULSION ENERGY": 594.6969861901529,
   "ONE-ELECTRON ENERGY": -1915.4055974161315,
   "PCM POLARIZATION ENERGY": 0.0,
   "PE ENERGY": 0.0,
   "SCF DIPOLE X": -3.2355028245753052,
   "SCF DIPOLE Y": 6.240461030243973,
   "SCF DIPOLE Z": 0.8426947793938057,
   "SCF ITERATION ENERGY": -542.2305341928112,
   "SCF ITERATIONS": 12.0,
   "SCF TOTAL ENERGY": -542.2305341928112,
   "TWO-ELECTRON ENERGY": 836.8440624659718,
   "XC GRID RADIAL POINTS": 75.0,
   "XC GRID SPHERICAL POINTS": 302.0,
   "XC GRID TOTAL POINTS": 337619.0,
   "CURRENT DIPOLE": [
    -1.272944758971943,
    2.45518628563102,
    0.3315416369581339
   ],
   "SCF DIPOLE": [
    -1.272944758971943,
    2.45518628563102,
    0.3315416369581339
   ]
  }
 },
 "provenance": {
  "creator": "Psi4",
  "version": "1.4a2.dev923",
  "routine": "psi4.schema_runner.run_qcschema",
  "nthreads": 32,
  "qcengine_version": "v0.17.0",
  "memory": 200.0,
  "username": "ubuntu",
  "cpu": "AMD EPYC Processor (with IBPB)",
  "wall_time": 14.854310512542725,
  "hostname": "bignimbus"
 },
 "properties": {
  "calcinfo_nbasis": 263,
  "calcinfo_nmo": 263,
  "calcinfo_nalpha": 39,
  "calcinfo_nbeta": 39,
  "calcinfo_natom": 16,
  "nuclear_repulsion_energy": 594.6969861901529,
  "return_energy": -542.2305341928112,
  "scf_one_electron_energy": -1915.4055974161315,
  "scf_two_electron_energy": 836.8440624659718,
  "scf_xc_energy": -58.336440092804445,
  "scf_dispersion_correction_energy": -0.02954534,
  "scf_dipole_moment": [
   -1.272944758971943,
   2.45518628563102,
   0.3315416369581339
  ],
  "scf_total_energy": -542.2305341928112,
  "scf_iterations": 12
 },
 "wavefunction": null,
 "return_result": -542.2305341928112,
 "stdout": "\n    -----------------------------------------------------------------------\n          Psi4: An Open-Source Ab Initio Electronic Structure Package\n                               Psi4 1.4a2.dev923 \n\n                         Git: Rev {master} 5de566e \n\n\n    D. G. A. Smith, L. A. Burns, A. C. Simmonett, R. M. Parrish,\n    M. C. Schieber, R. Galvelis, P. Kraus, H. Kruse, R. Di Remigio,\n    A. Alenaizan, A. M. James, S. Lehtola, J. P. Misiewicz, M. Scheurer,\n    R. A. Shaw, J. B. Schriber, Y. Xie, Z. L. Glick, D. A. Sirianni,\n    J. S. O'Brien, J. M. Waldrop, A. Kumar, E. G. Hohenstein,\n    B. P. Pritchard, B. R. Brooks, H. F. Schaefer III, A. Yu. Sokolov,\n    K. Patkowski, A. E. DePrince III, U. Bozkaya, R. A. King,\n    F. A. Evangelista, J. M. Turney, T. D. Crawford, C. D. Sherrill,\n    J. Chem. Phys. 152(18) 184108 (2020). https://doi.org/10.1063/5.0006002\n\n                            Additional Code Authors\n    E. T. Seidl, C. L. Janssen, E. F. Valeev, M. L. Leininger,\n    J. F. Gonthier, R. M. Richard, H. R. McAlexander, M. Saitow, X. Wang,\n    P. Verma, and M. H. Lechner\n\n             Previous Authors, Complete List of Code Contributors,\n                       and Citations for Specific Modules\n    https://github.com/psi4/psi4/blob/master/codemeta.json\n    https://github.com/psi4/psi4/graphs/contributors\n    http://psicode.org/psi4manual/master/introduction.html#citing-psifour\n\n    -----------------------------------------------------------------------\n\n\n    Psi4 started on: Monday, 17 May 2021 04:25AM\n\n    Process ID: 2489270\n    Host:       bignimbus\n    PSIDATADIR: /home/ubuntu/pk/Applications/miniconda3/envs/psi4-1.4a2.dev923/share/psi4\n    Memory:     186.3 GiB\n    Threads:    32\n    \n  ==> Input QCSchema <==\n\n--------------------------------------------------------------------------\n{'driver': 'energy',\n 'extras': {},\n 'id': None,\n 'keywords': {'guess': 'SAP'},\n 'model': {'basis': 'def2-svpd', 'method': 'b3lyp-d3bj'},\n 'molecule': {'atom_labels': ['', '', '', '', '', '', '', '', '', '', '', '', '', '', '', ''],\n              'atomic_numbers': [7, 6, 7, 6, 6, 8, 7, 6, 7, 7, 6, 1, 1, 1, 1, 1],\n              'fix_com': False,\n              'fix_orientation': False,\n              'fragment_charges': [0.0],\n              'fragment_multiplicities': [1],\n              'fragments': [[0, 1, 2, 3, 4, 5, 6, 7, 8, 9, 10, 11, 12, 13, 14, 15]],\n              'geometry': [1.9795091944628904, 2.10648344593581, -3.2710258001380055, 3.4421572155672493,\n                           0.044792243061317905, -3.8587306251553883, 3.037755824719273, -1.9205229274148223,\n                           -2.4471052094383907, 1.1329118902577822, -1.1570735727298587, -0.8011537541646163,\n                           -0.012262141769660673, -2.4156311722847725, 1.2151840216988745, 0.2787556815508445,\n                           -4.5585805985539505, 1.9767436502583846, -1.7942738780763943, -0.8301509530256563,\n                           2.475631347379249, -2.389537607595609, 1.6208238316931478, 1.8860367962363966,\n                           -4.060055502500329, 2.8793814312480634, 3.327897829960733, -1.346408786342888,\n                           2.8189101952334106, -0.06605029136152041, 0.4469413067165923, 1.3279162822471837,\n                           -1.28303391615637, 1.9190379584482393, 3.8072369588478554, -4.140299817848614,\n                           -2.720239679550729, -1.6994249707362563, 3.972294438741841, 4.817877834900548,\n                           0.13171964483237986, -5.37051152552165, -4.434221275340978, 4.678400702683916,\n                           2.8233409544634895, -4.8669685580708215, 2.1027039936848926, 4.909598596968934],\n              'mass_numbers': [14, 12, 14, 12, 12, 16, 14, 12, 14, 14, 12, 1, 1, 1, 1, 1],\n              'masses': [14.00307400443, 12.0, 14.00307400443, 12.0, 12.0, 15.99491461957, 14.00307400443, 12.0,\n                         14.00307400443, 14.00307400443, 12.0, 1.00782503223, 1.00782503223, 1.00782503223,\n                         1.00782503223, 1.00782503223],\n              'molecular_charge': 0.0,\n              'molecular_multiplicity': 1,\n              'name': 'C5H5N5O',\n              'provenance': {'creator': 'QCElemental',\n                             'routine': 'qcelemental.molparse.from_string',\n                             'version': 'v0.19.0'},\n              'real': [True, True, True, True, True, True, True, True, True, True, True, True, True, True, True, True],\n              'symbols': ['N', 'C', 'N', 'C', 'C', 'O', 'N', 'C', 'N', 'N', 'C', 'H', 'H', 'H', 'H', 'H'],\n              'validated': True},\n 'protocols': {},\n 'provenance': {'creator': 'QCElemental', 'routine': 'qcelemental.models.results', 'version': 'v0.17.0'},\n 'schema_name': 'qcschema_input',\n 'schema_version': 1}\n--------------------------------------------------------------------------\n\nScratch directory: /home/ubuntu/pk/scratch/tmp2l4w_l22_psi_scratch/\n\n*** tstart() called on bignimbus\n*** at Mon May 17 04:25:49 2021\n\n   => Loading Basis Set <=\n\n    Name: DEF2-SVPD\n    Role: ORBITAL\n    Keyword: BASIS\n    atoms 1, 3, 7, 9-10 entry N          line   125 file /home/ubuntu/pk/Applications/miniconda3/envs/psi4-1.4a2.dev923/share/psi4/basis/def2-svpd.gbs \n    atoms 2, 4-5, 8, 11 entry C          line   101 file /home/ubuntu/pk/Applications/miniconda3/envs/psi4-1.4a2.dev923/share/psi4/basis/def2-svpd.gbs \n    atoms 6             entry O          line   149 file /home/ubuntu/pk/Applications/miniconda3/envs/psi4-1.4a2.dev923/share/psi4/basis/def2-svpd.gbs \n    atoms 12-16         entry H          line    14 file /home/ubuntu/pk/Applications/miniconda3/envs/psi4-1.4a2.dev923/share/psi4/basis/def2-svpd.gbs \n\n   => B3LYP-D3(BJ): Empirical Dispersion <=\n\n    Grimme's -D3 (BJ-damping) Dispersion Correction\n    Grimme S.; Ehrlich S.; Goerigk L. (2011), J. Comput. Chem., 32: 1456\n\n        s6 =       1.000000\n        s8 =       1.988900\n        a1 =       0.398100\n        a2 =       4.421100\n\n\n         ---------------------------------------------------------\n                                   SCF\n               by Justin Turney, Rob Parrish, Andy Simmonett\n                          and Daniel G. A. Smith\n                              RKS Reference\n                       32 Threads, 190734 MiB Core\n         ---------------------------------------------------------\n\n  ==> Geometry <==\n\n    Molecular point group: c1\n    Full point group: C1\n\n    Geometry (in Bohr), charge = 0, multiplicity = 1:\n\n       Center              X                  Y                   Z               Mass       \n    ------------   -----------------  -----------------  -----------------  -----------------\n         N            1.979509194463     2.106483445936    -3.271025800138    14.003074004430\n         C            3.442157215567     0.044792243061    -3.858730625155    12.000000000000\n         N            3.037755824719    -1.920522927415    -2.447105209438    14.003074004430\n         C            1.132911890258    -1.157073572730    -0.801153754165    12.000000000000\n         C           -0.012262141770    -2.415631172285     1.215184021699    12.000000000000\n         O            0.278755681551    -4.558580598554     1.976743650258    15.994914619570\n         N           -1.794273878076    -0.830150953026     2.475631347379    14.003074004430\n         C           -2.389537607596     1.620823831693     1.886036796236    12.000000000000\n         N           -4.060055502500     2.879381431248     3.327897829961    14.003074004430\n         N           -1.346408786343     2.818910195233    -0.066050291361    14.003074004430\n         C            0.446941306717     1.327916282247    -1.283033916156    12.000000000000\n         H            1.919037958448     3.807236958848    -4.140299817849     1.007825032230\n         H           -2.720239679551    -1.699424970736     3.972294438742     1.007825032230\n         H            4.817877834901     0.131719644832    -5.370511525522     1.007825032230\n         H           -4.434221275341     4.678400702684     2.823340954464     1.007825032230\n         H           -4.866968558071     2.102703993685     4.909598596969     1.007825032230\n\n  Running in c1 symmetry.\n\n  Rotational constants: A =      0.06486  B =      0.03693  C =      0.02354 [cm^-1]\n  Rotational constants: A =   1944.44089  B =   1107.15421  C =    705.76789 [MHz]\n  Nuclear repulsion =  594.696986190152870\n\n  Charge       = 0\n  Multiplicity = 1\n  Electrons    = 78\n  Nalpha       = 39\n  Nbeta        = 39\n\n  ==> Algorithm <==\n\n  SCF Algorithm Type is DF.\n  DIIS enabled.\n  MOM disabled.\n  Fractional occupation disabled.\n  Guess Type is SAP.\n  Energy threshold   = 1.00e-06\n  Density threshold  = 1.00e-06\n  Integral threshold = 0.00e+00\n\n  ==> Primary Basis <==\n\n  Basis Set: DEF2-SVPD\n    Blend: DEF2-SVPD\n    Number of shells: 109\n    Number of basis function: 263\n    Number of Cartesian functions: 285\n    Spherical Harmonics?: true\n    Max angular momentum: 2\n\n  ==> DFT Potential <==\n\n   => Composite Functional: B3LYP-D3BJ <= \n\n    B3LYP-d3bj Hyb-GGA Exchange-Correlation Functional\n\n    P. J. Stephens, F. J. Devlin, C. F. Chabalowski, and M. J. Frisch, J. Phys. Chem. 98, 11623 (1994)\n\n    Deriv               =              1\n    GGA                 =           TRUE\n    Meta                =          FALSE\n\n    Exchange Hybrid     =           TRUE\n    MP2 Hybrid          =          FALSE\n\n   => Exchange Functionals <=\n\n    0.0800   Slater exchange\n    0.7200         Becke 88\n\n   => Exact (HF) Exchange <=\n\n    0.2000               HF \n\n   => Correlation Functionals <=\n\n    0.1900   Vosko, Wilk & Nusair (VWN5_RPA)\n    0.8100   Lee, Yang & Parr\n\n   => LibXC Density Thresholds  <==\n\n    XC_HYB_GGA_XC_B3LYP:  1.00E-32 \n\n   => Molecular Quadrature <=\n\n    Radial Scheme          =       TREUTLER\n    Pruning Scheme         =           NONE\n    Nuclear Scheme         =       TREUTLER\n\n    BS radius alpha        =              1\n    Pruning alpha          =              1\n    Radial Points          =             75\n    Spherical Points       =            302\n    Total Points           =         337619\n    Total Blocks           =           2518\n    Max Points             =            256\n    Max Functions          =            255\n    Weights Tolerance      =       1.00E-15\n\n   => Loading Basis Set <=\n\n    Name: (DEF2-SVPD AUX)\n    Role: JKFIT\n    Keyword: DF_BASIS_SCF\n    atoms 1, 3, 7, 9-10 entry N          line   258 file /home/ubuntu/pk/Applications/miniconda3/envs/psi4-1.4a2.dev923/share/psi4/basis/def2-universal-jkfit.gbs \n    atoms 2, 4-5, 8, 11 entry C          line   198 file /home/ubuntu/pk/Applications/miniconda3/envs/psi4-1.4a2.dev923/share/psi4/basis/def2-universal-jkfit.gbs \n    atoms 6             entry O          line   318 file /home/ubuntu/pk/Applications/miniconda3/envs/psi4-1.4a2.dev923/share/psi4/basis/def2-universal-jkfit.gbs \n    atoms 12-16         entry H          line    18 file /home/ubuntu/pk/Applications/miniconda3/envs/psi4-1.4a2.dev923/share/psi4/basis/def2-universal-jkfit.gbs \n\n  ==> Integral Setup <==\n\n  DFHelper Memory: AOs need 0.493 GiB; user supplied 137.736 GiB. Using in-core AOs.\n\n  ==> MemDFJK: Density-Fitted J/K Matrices <==\n\n    J tasked:                   Yes\n    K tasked:                   Yes\n    wK tasked:                   No\n    OpenMP threads:              32\n    Memory [MiB]:            141041\n    Algorithm:                 Core\n    Schwarz Cutoff:           1E-12\n    Mask sparsity (%):       4.4471\n    Fitting Condition:        1E-10\n\n   => Auxiliary Basis Set <=\n\n  Basis Set: (DEF2-SVPD AUX)\n    Blend: DEF2-UNIVERSAL-JKFIT\n    Number of shells: 305\n    Number of basis function: 927\n    Number of Cartesian functions: 1103\n    Spherical Harmonics?: true\n    Max angular momentum: 4\n\n  Cached 100.0% of DFT collocation blocks in 1.963 [GiB].\n\n  Minimum eigenvalue in the overlap matrix is 3.3258012337E-05.\n  Reciprocal condition number of the overlap matrix is 2.8121585556E-06.\n    Using symmetric orthogonalization.\n\n  ==> Pre-Iterations <==\n\n  SCF Guess: Superposition of Atomic Potentials (doi:10.1021/acs.jctc.8b01089).\n\n  ==> SAP guess <==\n\n   => Molecular Quadrature <=\n\n    Radial Scheme          =       TREUTLER\n    Pruning Scheme         =           NONE\n    Nuclear Scheme         =       TREUTLER\n\n    BS radius alpha        =              1\n    Pruning alpha          =              1\n    Radial Points          =             75\n    Spherical Points       =            302\n    Total Points           =         337619\n    Total Blocks           =           2518\n    Max Points             =            256\n    Max Functions          =            255\n    Weights Tolerance      =       1.00E-15\n\n   -------------------------------------------------------\n    Irrep   Nso     Nmo     Nalpha   Nbeta   Ndocc  Nsocc\n   -------------------------------------------------------\n     A        263     263      39      39      39       0\n   -------------------------------------------------------\n    Total     263     263      39      39      39       0\n   -------------------------------------------------------\n\n  ==> Iterations <==\n\n                           Total Energy        Delta E     RMS |[F,P]|\n\n   @DF-RKS iter   1:  -537.75303666080106   -5.37753e+02   1.15351e-02 DIIS\n   @DF-RKS iter   2:  -499.78894334864231    3.79641e+01   2.82521e-02 DIIS\n   @DF-RKS iter   3:  -541.35700138036179   -4.15681e+01   5.24602e-03 DIIS\n   @DF-RKS iter   4:  -540.94803705578249    4.08964e-01   6.06446e-03 DIIS\n   @DF-RKS iter   5:  -542.20122655550313   -1.25319e+00   9.58571e-04 DIIS\n   @DF-RKS iter   6:  -542.20357827278599   -2.35172e-03   9.29208e-04 DIIS\n   @DF-RKS iter   7:  -542.22977897649457   -2.62007e-02   1.46557e-04 DIIS\n   @DF-RKS iter   8:  -542.23041050953032   -6.31533e-04   6.14941e-05 DIIS\n   @DF-RKS iter   9:  -542.23052243255211   -1.11923e-04   1.97175e-05 DIIS\n   @DF-RKS iter  10:  -542.23053353159071   -1.10990e-05   4.40022e-06 DIIS\n   @DF-RKS iter  11:  -542.23053412794218   -5.96351e-07   1.44956e-06 DIIS\n   @DF-RKS iter  12:  -542.23053419281121   -6.48690e-08   4.98384e-07 DIIS\n  Energy and wave function converged.\n\n\n  ==> Post-Iterations <==\n\n    Orbital Energies [Eh]\n    ---------------------\n\n    Doubly Occupied:                                                      \n\n       1A    -19.106423     2A    -14.398705     3A    -14.394846  \n       4A    -14.386517     5A    -14.335341     6A    -14.323279  \n       7A    -10.329901     8A    -10.294677     9A    -10.270749  \n      10A    -10.255950    11A    -10.207332    12A     -1.048529  \n      13A     -1.022418    14A     -1.005743    15A     -0.918804  \n      16A     -0.898558    17A     -0.874883    18A     -0.766652  \n      19A     -0.680596    20A     -0.665542    21A     -0.628669  \n      22A     -0.612430    23A     -0.561018    24A     -0.555072  \n      25A     -0.531965    26A     -0.500924    27A     -0.485818  \n      28A     -0.468207    29A     -0.441167    30A     -0.438590  \n      31A     -0.420539    32A     -0.403112    33A     -0.324428  \n      34A     -0.321358    35A     -0.299173    36A     -0.294321  \n      37A     -0.277771    38A     -0.267437    39A     -0.221281  \n\n    Virtual:                                                              \n\n      40A     -0.022399    41A     -0.012775    42A     -0.011020  \n      43A      0.015054    44A      0.027332    45A      0.034624  \n      46A      0.043264    47A      0.059990    48A      0.069151  \n      49A      0.088015    50A      0.101837    51A      0.108978  \n      52A      0.120960    53A      0.131099    54A      0.140408  \n      55A      0.143204    56A      0.144177    57A      0.160572  \n      58A      0.161593    59A      0.169571    60A      0.174949  \n      61A      0.185460    62A      0.194865    63A      0.214133  \n      64A      0.217530    65A      0.225749    66A      0.228021  \n      67A      0.234058    68A      0.248898    69A      0.254227  \n      70A      0.261414    71A      0.269920    72A      0.277703  \n      73A      0.282383    74A      0.287388    75A      0.302856  \n      76A      0.308436    77A      0.315481    78A      0.318819  \n      79A      0.323119    80A      0.333558    81A      0.335243  \n      82A      0.341800    83A      0.346806    84A      0.353936  \n      85A      0.356571    86A      0.365679    87A      0.372695  \n      88A      0.388638    89A      0.392720    90A      0.397252  \n      91A      0.405739    92A      0.408005    93A      0.416082  \n      94A      0.428665    95A      0.430235    96A      0.433825  \n      97A      0.437010    98A      0.449861    99A      0.458261  \n     100A      0.469368   101A      0.487547   102A      0.502484  \n     103A      0.516705   104A      0.519326   105A      0.529750  \n     106A      0.532522   107A      0.552865   108A      0.561607  \n     109A      0.562681   110A      0.565218   111A      0.568043  \n     112A      0.573057   113A      0.595074   114A      0.605440  \n     115A      0.608499   116A      0.621373   117A      0.624947  \n     118A      0.629692   119A      0.635509   120A      0.644451  \n     121A      0.665764   122A      0.667217   123A      0.671116  \n     124A      0.685076   125A      0.705012   126A      0.706152  \n     127A      0.717388   128A      0.721864   129A      0.731512  \n     130A      0.732490   131A      0.736889   132A      0.745139  \n     133A      0.748598   134A      0.763332   135A      0.768373  \n     136A      0.783195   137A      0.792462   138A      0.799518  \n     139A      0.801486   140A      0.816383   141A      0.830118  \n     142A      0.851432   143A      0.862580   144A      0.867428  \n     145A      0.898257   146A      0.903333   147A      0.914095  \n     148A      0.924787   149A      0.966154   150A      1.004771  \n     151A      1.009520   152A      1.033924   153A      1.041665  \n     154A      1.060384   155A      1.078404   156A      1.088862  \n     157A      1.104110   158A      1.108547   159A      1.140140  \n     160A      1.150365   161A      1.161078   162A      1.166644  \n     163A      1.174543   164A      1.197096   165A      1.213570  \n     166A      1.239844   167A      1.256532   168A      1.274282  \n     169A      1.287237   170A      1.309402   171A      1.327081  \n     172A      1.339024   173A      1.384359   174A      1.440430  \n     175A      1.475260   176A      1.495270   177A      1.524596  \n     178A      1.557401   179A      1.562671   180A      1.574832  \n     181A      1.581341   182A      1.616534   183A      1.633976  \n     184A      1.647474   185A      1.652309   186A      1.688667  \n     187A      1.698561   188A      1.710191   189A      1.733165  \n     190A      1.745489   191A      1.754342   192A      1.773492  \n     193A      1.774834   194A      1.778803   195A      1.797708  \n     196A      1.802591   197A      1.837786   198A      1.846267  \n     199A      1.848790   200A      1.889894   201A      1.898333  \n     202A      1.900783   203A      1.917736   204A      1.927401  \n     205A      1.970690   206A      1.986266   207A      1.994927  \n     208A      2.002172   209A      2.029555   210A      2.063709  \n     211A      2.081645   212A      2.086136   213A      2.092378  \n     214A      2.113906   215A      2.122364   216A      2.135976  \n     217A      2.141730   218A      2.160281   219A      2.201391  \n     220A      2.265661   221A      2.276626   222A      2.321540  \n     223A      2.335152   224A      2.359938   225A      2.420679  \n     226A      2.438479   227A      2.464183   228A      2.477896  \n     229A      2.502757   230A      2.532374   231A      2.545071  \n     232A      2.579191   233A      2.586835   234A      2.593623  \n     235A      2.616398   236A      2.712206   237A      2.735026  \n     238A      2.750573   239A      2.794481   240A      2.800969  \n     241A      2.830915   242A      2.854483   243A      2.885026  \n     244A      2.926458   245A      2.948682   246A      2.952205  \n     247A      3.021990   248A      3.059862   249A      3.071529  \n     250A      3.173458   251A      3.211402   252A      3.219072  \n     253A      3.239649   254A      3.265741   255A      3.316689  \n     256A      3.356783   257A      3.384123   258A      3.474412  \n     259A      3.532452   260A      3.650341   261A      3.683662  \n     262A      3.728672   263A      3.896739  \n\n    Final Occupation by Irrep:\n              A \n    DOCC [    39 ]\n\n  @DF-RKS Final Energy:  -542.23053419281121\n\n   => Energetics <=\n\n    Nuclear Repulsion Energy =            594.6969861901528702\n    One-Electron Energy =               -1915.4055974161315135\n    Two-Electron Energy =                 836.8440624659717741\n    DFT Exchange-Correlation Energy =     -58.3364400928044446\n    Empirical Dispersion Energy =          -0.0295453400000000\n    VV10 Nonlocal Energy =                  0.0000000000000000\n    Total Energy =                       -542.2305341928112057\n\nComputation Completed\n\n\nProperties will be evaluated at   0.000000,   0.000000,   0.000000 [a0]\n\nProperties computed using the SCF density matrix\n\n  Nuclear Dipole Moment: [e a0]\n     X:    -2.6175      Y:     4.4557      Z:     1.0936\n\n  Electronic Dipole Moment: [e a0]\n     X:     1.3446      Y:    -2.0005      Z:    -0.7621\n\n  Dipole Moment: [e a0]\n     X:    -1.2729      Y:     2.4552      Z:     0.3315     Total:     2.7854\n\n  Dipole Moment: [D]\n     X:    -3.2355      Y:     6.2405      Z:     0.8427     Total:     7.0797\n\n\n*** tstop() called on bignimbus at Mon May 17 04:25:59 2021\nModule time:\n\tuser time   =     200.93 seconds =       3.35 minutes\n\tsystem time =       7.96 seconds =       0.13 minutes\n\ttotal time  =         10 seconds =       0.17 minutes\nTotal time:\n\tuser time   =     200.93 seconds =       3.35 minutes\n\tsystem time =       7.96 seconds =       0.13 minutes\n\ttotal time  =         10 seconds =       0.17 minutes\n\n    Psi4 stopped on: Monday, 17 May 2021 04:25AM\n    Psi4 wall time for execution: 0:00:10.03\n\n*** Psi4 exiting successfully. Buy a developer a beer!\n",
 "stderr": null,
 "success": true,
 "error": null,
 "tag": "b3lyp-d3bj def2-svpd ggg_a"
}