{
 "id": null,
 "schema_name": "qcschema_output",
 "schema_version": 1,
 "molecule": {
  "validated": true,
  "symbols": [
   "C",
   "C",
   "C",
   "C",
   "C",
   "N",
   "N",
   "N",
   "N",
   "N",
   "H",
   "H",
   "H",
   "H",
   "H"
  ],
  "geometry": [
   -2.6005148446510584,
   0.05786205884492528,
   -0.05834799091184591,
   -0.1816654040650379,
   -1.05140717679882,
   0.03991776761196013,
   1.8611285375548743,
   0.6342285271095628,
   0.08527119462294801,
   -0.6465380309276636,
   3.967705412417172,
   0.03235886311012896,
   3.108347780357041,
   -3.3625422282337434,
   0.004012971228262096,
   -2.7857080049459246,
   2.5976539714602467,
   -0.05267881253547342,
   1.7553038745292358,
   3.1645718090975947,
   0.09849927750115343,
   0.6309168298818281,
   -3.543955936277695,
   -0.011104837775400235,
   3.9719526196912684,
   -0.9002290867621937,
   0.08716092074840669,
   -4.769920436676645,
   -1.3273071911156629,
   -0.11126032242466495,
   -0.9092099623663019,
   6.004830175660711,
   0.019130780231924428,
   4.406589628546569,
   -4.938573816865572,
   -0.07157607379005133,
   5.787979426256241,
   -0.31630371399572466,
   -0.04700963415909916,
   -6.351621203684847,
   -0.38811330676312217,
   -0.6366041853019416,
   -4.6414190601455125,
   -3.160341532809756,
   -0.6403836375528572
  ],
  "name": "C5H5N5",
  "molecular_charge": 0.0,
  "molecular_multiplicity": 1,
  "masses": [
   12.0,
   12.0,
   12.0,
   12.0,
   12.0,
   14.00307400443,
   14.00307400443,
   14.00307400443,
   14.00307400443,
   14.00307400443,
   1.00782503223,
   1.00782503223,
   1.00782503223,
   1.00782503223,
   1.00782503223
  ],
  "real": [
   true,
   true,
   true,
   true,
   true,
   true,
   true,
   true,
   true,
   true,
   true,
   true,
   true,
   true,
   true
  ],
  "atom_labels": [
   "",
   "",
   "",
   "",
   "",
   "",
   "",
   "",
   "",
   "",
   "",
   "",
   "",
   "",
   ""
  ],
  "atomic_numbers": [
   6,
   6,
   6,
   6,
   6,
   7,
   7,
   7,
   7,
   7,
   1,
   1,
   1,
   1,
   1
  ],
  "mass_numbers": [
   12,
   12,
   12,
   12,
   12,
   14,
   14,
   14,
   14,
   14,
   1,
   1,
   1,
   1,
   1
  ],
  "fragments": [
   [
    0,
    1,
    2,
    3,
    4,
    5,
    6,
    7,
    8,
    9,
    10,
    11,
    12,
    13,
    14
   ]
  ],
  "fragment_charges": [
   0.0
  ],
  "fragment_multiplicities": [
   1
  ],
  "fix_com": false,
  "fix_orientation": false,
  "provenance": {
   "creator": "QCElemental",
   "version": "v0.19.0",
   "routine": "qcelemental.molparse.from_string"
  }
 },
 "driver": "energy",
 "model": {
  "method": "dsd-pbep86-nl",
  "basis": "def2-tzvpd"
 },
 "keywords": {
  "guess": "SAP",
  "dft_vv10_postscf": "true"
 },
 "protocols": {},
 "extras": {
  "qcvars": {
   "CURRENT DIPOLE X": 1.691730904977639,
   "CURRENT DIPOLE Y": -1.8528454463848851,
   "CURRENT DIPOLE Z": -0.9580280339368872,
   "CURRENT ENERGY": -466.6604179629086,
   "CURRENT REFERENCE ENERGY": -465.68780371143635,
   "DFT FUNCTIONAL TOTAL ENERGY": -465.6878037114364,
   "DFT TOTAL ENERGY": -466.6604179629086,
   "DFT VV10 ENERGY": 0.09387037696397141,
   "DFT XC ENERGY": -19.947287823251422,
   "DOUBLE-HYBRID CORRECTION ENERGY": -0.97261425147221,
   "DSD-PBEP86-NL DOUBLE-HYBRID CORRECTION ENERGY": -0.97261425147221,
   "DSD-PBEP86-NL TOTAL ENERGY": -466.6604179629086,
   "NUCLEAR REPULSION ENERGY": 501.2235939031376,
   "ONE-ELECTRON ENERGY": -1625.8064699430495,
   "PCM POLARIZATION ENERGY": 0.0,
   "PE ENERGY": 0.0,
   "SCF DIPOLE X": 1.691730904977639,
   "SCF DIPOLE Y": -1.8528454463848851,
   "SCF DIPOLE Z": -0.9580280339368872,
   "SCF ITERATION ENERGY": -465.78176184922586,
   "SCF ITERATIONS": 11.0,
   "SCF TOTAL ENERGY": -465.68780371143635,
   "TWO-ELECTRON ENERGY": 678.7484897747628,
   "XC GRID RADIAL POINTS": 75.0,
   "XC GRID SPHERICAL POINTS": 302.0,
   "XC GRID TOTAL POINTS": 317511.0,
   "CURRENT DIPOLE": [
    0.6655781514778356,
    -0.7289654894584299,
    -0.3769172307578591
   ],
   "SCF DIPOLE": [
    0.6655781514778356,
    -0.7289654894584299,
    -0.3769172307578591
   ]
  }
 },
 "provenance": {
  "creator": "Psi4",
  "version": "1.4a2.dev923",
  "routine": "psi4.schema_runner.run_qcschema",
  "wall_time": 22.7329843044281,
  "qcengine_version": "v0.17.0",
  "nthreads": 32,
  "cpu": "AMD EPYC Processor (with IBPB)",
  "hostname": "bignimbus",
  "memory": 200.0,
  "username": "ubuntu"
 },
 "properties": {
  "calcinfo_nbasis": 415,
  "calcinfo_nmo": 415,
  "calcinfo_nalpha": 35,
  "calcinfo_nbeta": 35,
  "calcinfo_natom": 15,
  "nuclear_repulsion_energy": 501.2235939031376,
  "return_energy": -466.6604179629086,
  "scf_one_electron_energy": -1625.8064699430495,
  "scf_two_electron_energy": 678.7484897747628,
  "scf_vv10_energy": 0.09387037696397141,
  "scf_xc_energy": -19.947287823251422,
  "scf_dipole_moment": [
   0.6655781514778356,
   -0.7289654894584299,
   -0.3769172307578591
  ],
  "scf_total_energy": -465.68780371143635,
  "scf_iterations": 11
 },
 "wavefunction": null,
 "return_result": -466.6604179629086,
 "stdout": "\n    -----------------------------------------------------------------------\n          Psi4: An Open-Source Ab Initio Electronic Structure Package\n                               Psi4 1.4a2.dev923 \n\n                         Git: Rev {master} 5de566e \n\n\n    D. G. A. Smith, L. A. Burns, A. C. Simmonett, R. M. Parrish,\n    M. C. Schieber, R. Galvelis, P. Kraus, H. Kruse, R. Di Remigio,\n    A. Alenaizan, A. M. James, S. Lehtola, J. P. Misiewicz, M. Scheurer,\n    R. A. Shaw, J. B. Schriber, Y. Xie, Z. L. Glick, D. A. Sirianni,\n    J. S. O'Brien, J. M. Waldrop, A. Kumar, E. G. Hohenstein,\n    B. P. Pritchard, B. R. Brooks, H. F. Schaefer III, A. Yu. Sokolov,\n    K. Patkowski, A. E. DePrince III, U. Bozkaya, R. A. King,\n    F. A. Evangelista, J. M. Turney, T. D. Crawford, C. D. Sherrill,\n    J. Chem. Phys. 152(18) 184108 (2020). https://doi.org/10.1063/5.0006002\n\n                            Additional Code Authors\n    E. T. Seidl, C. L. Janssen, E. F. Valeev, M. L. Leininger,\n    J. F. Gonthier, R. M. Richard, H. R. McAlexander, M. Saitow, X. Wang,\n    P. Verma, and M. H. Lechner\n\n             Previous Authors, Complete List of Code Contributors,\n                       and Citations for Specific Modules\n    https://github.com/psi4/psi4/blob/master/codemeta.json\n    https://github.com/psi4/psi4/graphs/contributors\n    http://psicode.org/psi4manual/master/introduction.html#citing-psifour\n\n    -----------------------------------------------------------------------\n\n\n    Psi4 started on: Sunday, 16 May 2021 05:44PM\n\n    Process ID: 2420318\n    Host:       bignimbus\n    PSIDATADIR: /home/ubuntu/pk/Applications/miniconda3/envs/psi4-1.4a2.dev923/share/psi4\n    Memory:     186.3 GiB\n    Threads:    32\n    \n  ==> Input QCSchema <==\n\n--------------------------------------------------------------------------\n{'driver': 'energy',\n 'extras': {},\n 'id': None,\n 'keywords': {'dft_vv10_postscf': 'true', 'guess': 'SAP'},\n 'model': {'basis': 'def2-tzvpd', 'method': 'dsd-pbep86-nl'},\n 'molecule': {'atom_labels': ['', '', '', '', '', '', '', '', '', '', '', '', '', '', ''],\n              'atomic_numbers': [6, 6, 6, 6, 6, 7, 7, 7, 7, 7, 1, 1, 1, 1, 1],\n              'fix_com': False,\n              'fix_orientation': False,\n              'fragment_charges': [0.0],\n              'fragment_multiplicities': [1],\n              'fragments': [[0, 1, 2, 3, 4, 5, 6, 7, 8, 9, 10, 11, 12, 13, 14]],\n              'geometry': [-2.600514844651058, 0.0578620588449254, -0.05834799091184806, -0.1816654040650374,\n                           -1.0514071767988198, 0.03991776761195798, 1.8611285375548747, 0.6342285271095629,\n                           0.08527119462294586, -0.6465380309276632, 3.967705412417172, 0.03235886311012681,\n                           3.1083477803570414, -3.3625422282337434, 0.004012971228259943, -2.785708004945924,\n                           2.5976539714602467, -0.05267881253547557, 1.7553038745292362, 3.1645718090975947,\n                           0.09849927750115128, 0.6309168298818285, -3.543955936277695, -0.011104837775402387,\n                           3.971952619691269, -0.9002290867621936, 0.08716092074840454, -4.769920436676644,\n                           -1.3273071911156626, -0.1112603224246671, -0.9092099623663015, 6.004830175660711,\n                           0.019130780231922273, 4.40658962854657, -4.938573816865572, -0.07157607379005348,\n                           5.787979426256242, -0.31630371399572454, -0.04700963415910131, -6.3516212036848465,\n                           -0.38811330676312206, -0.6366041853019437, -4.641419060145512, -3.160341532809756,\n                           -0.6403836375528593],\n              'mass_numbers': [12, 12, 12, 12, 12, 14, 14, 14, 14, 14, 1, 1, 1, 1, 1],\n              'masses': [12.0, 12.0, 12.0, 12.0, 12.0, 14.00307400443, 14.00307400443, 14.00307400443, 14.00307400443,\n                         14.00307400443, 1.00782503223, 1.00782503223, 1.00782503223, 1.00782503223, 1.00782503223],\n              'molecular_charge': 0.0,\n              'molecular_multiplicity': 1,\n              'name': 'C5H5N5',\n              'provenance': {'creator': 'QCElemental',\n                             'routine': 'qcelemental.molparse.from_string',\n                             'version': 'v0.19.0'},\n              'real': [True, True, True, True, True, True, True, True, True, True, True, True, True, True, True],\n              'symbols': ['C', 'C', 'C', 'C', 'C', 'N', 'N', 'N', 'N', 'N', 'H', 'H', 'H', 'H', 'H'],\n              'validated': True},\n 'protocols': {},\n 'provenance': {'creator': 'QCElemental', 'routine': 'qcelemental.models.results', 'version': 'v0.17.0'},\n 'schema_name': 'qcschema_input',\n 'schema_version': 1}\n--------------------------------------------------------------------------\n\nScratch directory: /home/ubuntu/pk/scratch/tmpksmgsrr2_psi_scratch/\n\n*** tstart() called on bignimbus\n*** at Sun May 16 17:44:06 2021\n\n   => Loading Basis Set <=\n\n    Name: DEF2-TZVPD\n    Role: ORBITAL\n    Keyword: BASIS\n    atoms 1-5   entry C          line   134 file /home/ubuntu/pk/Applications/miniconda3/envs/psi4-1.4a2.dev923/share/psi4/basis/def2-tzvpd.gbs \n    atoms 6-10  entry N          line   171 file /home/ubuntu/pk/Applications/miniconda3/envs/psi4-1.4a2.dev923/share/psi4/basis/def2-tzvpd.gbs \n    atoms 11-15 entry H          line    14 file /home/ubuntu/pk/Applications/miniconda3/envs/psi4-1.4a2.dev923/share/psi4/basis/def2-tzvpd.gbs \n\n   => DSD-PBEP86-NL: Empirical Dispersion <=\n\n    Grimme's -NL (DFT plus VV10 correlation) \n    Hujo, W.; Grimme, S; (2011), J. Chem. Theory Comput.; 7:3866\n    Parametrisation from:    M. K. Kesharwani, A. Karton, J.M. L. Martin, J. Chem. Theory Comput. 12, 444-454, 2016\n\n         b =      12.800000\n         c =       0.009300\n\n\n         ---------------------------------------------------------\n                                   SCF\n               by Justin Turney, Rob Parrish, Andy Simmonett\n                          and Daniel G. A. Smith\n                              RKS Reference\n                       32 Threads, 190734 MiB Core\n         ---------------------------------------------------------\n\n  ==> Geometry <==\n\n    Molecular point group: c1\n    Full point group: C1\n\n    Geometry (in Bohr), charge = 0, multiplicity = 1:\n\n       Center              X                  Y                   Z               Mass       \n    ------------   -----------------  -----------------  -----------------  -----------------\n         C           -2.600514844651     0.057862058845    -0.058347990912    12.000000000000\n         C           -0.181665404065    -1.051407176799     0.039917767612    12.000000000000\n         C            1.861128537555     0.634228527110     0.085271194623    12.000000000000\n         C           -0.646538030928     3.967705412417     0.032358863110    12.000000000000\n         C            3.108347780357    -3.362542228234     0.004012971228    12.000000000000\n         N           -2.785708004946     2.597653971460    -0.052678812535    14.003074004430\n         N            1.755303874529     3.164571809098     0.098499277501    14.003074004430\n         N            0.630916829882    -3.543955936278    -0.011104837775    14.003074004430\n         N            3.971952619691    -0.900229086762     0.087160920748    14.003074004430\n         N           -4.769920436677    -1.327307191116    -0.111260322425    14.003074004430\n         H           -0.909209962366     6.004830175661     0.019130780232     1.007825032230\n         H            4.406589628547    -4.938573816866    -0.071576073790     1.007825032230\n         H            5.787979426256    -0.316303713996    -0.047009634159     1.007825032230\n         H           -6.351621203685    -0.388113306763    -0.636604185302     1.007825032230\n         H           -4.641419060146    -3.160341532810    -0.640383637553     1.007825032230\n\n  Running in c1 symmetry.\n\n  Rotational constants: A =      0.07881  B =      0.05206  C =      0.03137 [cm^-1]\n  Rotational constants: A =   2362.65971  B =   1560.84141  C =    940.48329 [MHz]\n  Nuclear repulsion =  501.223593903137612\n\n  Charge       = 0\n  Multiplicity = 1\n  Electrons    = 70\n  Nalpha       = 35\n  Nbeta        = 35\n\n  ==> Algorithm <==\n\n  SCF Algorithm Type is DF.\n  DIIS enabled.\n  MOM disabled.\n  Fractional occupation disabled.\n  Guess Type is SAP.\n  Energy threshold   = 1.00e-06\n  Density threshold  = 1.00e-06\n  Integral threshold = 0.00e+00\n\n  ==> Primary Basis <==\n\n  Basis Set: DEF2-TZVPD\n    Blend: DEF2-TZVPD\n    Number of shells: 155\n    Number of basis function: 415\n    Number of Cartesian functions: 475\n    Spherical Harmonics?: true\n    Max angular momentum: 3\n\n  ==> DFT Potential <==\n\n   => Composite Functional: DSD-PBEP86-NL <= \n\n    DSD-PBEP86-NL (D3BJ parameters) VV10 SCS Double Hybrid XC Functional\n\n    S. Kozuch, J.M.L. Martin, J. Comp. Chem., 34, 2327-2344, 2013\n\n\n    Deriv               =              1\n    GGA                 =           TRUE\n    Meta                =          FALSE\n\n    Exchange Hybrid     =           TRUE\n    MP2 Hybrid          =           TRUE\n\n   => Exchange Functionals <=\n\n    0.3100     XC_GGA_X_PBE\n\n   => Exact (HF) Exchange <=\n\n    0.6900               HF \n\n   => Correlation Functionals <=\n\n    0.4400     XC_GGA_C_P86\n\n   => MP2 Correlation <=\n\n    MP2 SCS Hybrid      =           TRUE\n    MP2 OS Alpha        =       0.520000\n    MP2 SS Alpha        =       0.220000\n\n   => LibXC Density Thresholds  <==\n\n    XC_GGA_C_P86:  1.00E-25 \n    XC_GGA_X_PBE:  1.00E-32 \n\n   => VV10 Non-Local Parameters <=\n\n    VV10 B              =     1.2800E+01\n    VV10 C              =     9.3000E-03\n\n   => Molecular Quadrature <=\n\n    Radial Scheme          =       TREUTLER\n    Pruning Scheme         =           NONE\n    Nuclear Scheme         =       TREUTLER\n\n    BS radius alpha        =              1\n    Pruning alpha          =              1\n    Radial Points          =             75\n    Spherical Points       =            302\n    Total Points           =         317510\n    Total Blocks           =           2380\n    Max Points             =            256\n    Max Functions          =            395\n    Weights Tolerance      =       1.00E-15\n\n   => Loading Basis Set <=\n\n    Name: (DEF2-TZVPD AUX)\n    Role: JKFIT\n    Keyword: DF_BASIS_SCF\n    atoms 1-5   entry C          line   198 file /home/ubuntu/pk/Applications/miniconda3/envs/psi4-1.4a2.dev923/share/psi4/basis/def2-universal-jkfit.gbs \n    atoms 6-10  entry N          line   258 file /home/ubuntu/pk/Applications/miniconda3/envs/psi4-1.4a2.dev923/share/psi4/basis/def2-universal-jkfit.gbs \n    atoms 11-15 entry H          line    18 file /home/ubuntu/pk/Applications/miniconda3/envs/psi4-1.4a2.dev923/share/psi4/basis/def2-universal-jkfit.gbs \n\n  ==> Integral Setup <==\n\n  DFHelper Memory: AOs need 1.123 GiB; user supplied 136.931 GiB. Using in-core AOs.\n\n  ==> MemDFJK: Density-Fitted J/K Matrices <==\n\n    J tasked:                   Yes\n    K tasked:                   Yes\n    wK tasked:                   No\n    OpenMP threads:              32\n    Memory [MiB]:            140217\n    Algorithm:                 Core\n    Schwarz Cutoff:           1E-12\n    Mask sparsity (%):       4.5034\n    Fitting Condition:        1E-10\n\n   => Auxiliary Basis Set <=\n\n  Basis Set: (DEF2-TZVPD AUX)\n    Blend: DEF2-UNIVERSAL-JKFIT\n    Number of shells: 280\n    Number of basis function: 850\n    Number of Cartesian functions: 1010\n    Spherical Harmonics?: true\n    Max angular momentum: 4\n\n  Cached 100.0% of DFT collocation blocks in 2.767 [GiB].\n\n  Minimum eigenvalue in the overlap matrix is 1.0227625614E-06.\n  Reciprocal condition number of the overlap matrix is 6.5465495355E-08.\n    Using symmetric orthogonalization.\n\n  ==> Pre-Iterations <==\n\n  SCF Guess: Superposition of Atomic Potentials (doi:10.1021/acs.jctc.8b01089).\n\n  ==> SAP guess <==\n\n   => Molecular Quadrature <=\n\n    Radial Scheme          =       TREUTLER\n    Pruning Scheme         =           NONE\n    Nuclear Scheme         =       TREUTLER\n\n    BS radius alpha        =              1\n    Pruning alpha          =              1\n    Radial Points          =             75\n    Spherical Points       =            302\n    Total Points           =         317511\n    Total Blocks           =           2379\n    Max Points             =            256\n    Max Functions          =            395\n    Weights Tolerance      =       1.00E-15\n\n   -------------------------------------------------------\n    Irrep   Nso     Nmo     Nalpha   Nbeta   Ndocc  Nsocc\n   -------------------------------------------------------\n     A        415     415      35      35      35       0\n   -------------------------------------------------------\n    Total     415     415      35      35      35       0\n   -------------------------------------------------------\n\n  VV10: post-SCF option active \n \n  ==> Iterations <==\n\n                           Total Energy        Delta E     RMS |[F,P]|\n\n   @DF-RKS iter   1:  -462.49528732521941   -4.62495e+02   6.37908e-03 DIIS\n   @DF-RKS iter   2:  -453.62927304210677    8.86601e+00   9.36808e-03 DIIS\n   @DF-RKS iter   3:  -465.08627202924487   -1.14570e+01   2.80087e-03 DIIS\n   @DF-RKS iter   4:  -465.69568887940426   -6.09417e-01   1.01687e-03 DIIS\n   @DF-RKS iter   5:  -465.77231711126649   -7.66282e-02   3.25008e-04 DIIS\n   @DF-RKS iter   6:  -465.78010944557548   -7.79233e-03   1.39628e-04 DIIS\n   @DF-RKS iter   7:  -465.78169815074006   -1.58871e-03   2.09871e-05 DIIS\n   @DF-RKS iter   8:  -465.78174319522833   -4.50445e-05   1.28938e-05 DIIS\n   @DF-RKS iter   9:  -465.78175907425168   -1.58790e-05   4.34047e-06 DIIS\n   @DF-RKS iter  10:  -465.78176151240524   -2.43815e-06   1.41505e-06 DIIS\n   @DF-RKS iter  11:  -465.78176184922586   -3.36821e-07   4.84365e-07 DIIS\n  Energy and wave function converged.\n\n  ==> Computing Non-Self-Consistent VV10 Energy Correction <==\n\n\n  ==> Post-Iterations <==\n\n    Orbital Energies [Eh]\n    ---------------------\n\n    Doubly Occupied:                                                      \n\n       1A    -15.150683     2A    -15.102114     3A    -15.088851  \n       4A    -15.079336     5A    -15.072835     6A    -10.919941  \n       7A    -10.908721     8A    -10.902901     9A    -10.892179  \n      10A    -10.847397    11A     -1.245298    12A     -1.181249  \n      13A     -1.132308    14A     -1.078002    15A     -1.044463  \n      16A     -0.936871    17A     -0.813007    18A     -0.795634  \n      19A     -0.767521    20A     -0.707008    21A     -0.668771  \n      22A     -0.631130    23A     -0.612140    24A     -0.579327  \n      25A     -0.571243    26A     -0.551524    27A     -0.530168  \n      28A     -0.504948    29A     -0.451489    30A     -0.435419  \n      31A     -0.394605    32A     -0.383767    33A     -0.356542  \n      34A     -0.339789    35A     -0.286082  \n\n    Virtual:                                                              \n\n      36A      0.040341    37A      0.044787    38A      0.057936  \n      39A      0.070282    40A      0.076184    41A      0.083370  \n      42A      0.090754    43A      0.110829    44A      0.112124  \n      45A      0.128439    46A      0.139116    47A      0.144667  \n      48A      0.152131    49A      0.163907    50A      0.174263  \n      51A      0.187817    52A      0.193642    53A      0.197009  \n      54A      0.201792    55A      0.212594    56A      0.221824  \n      57A      0.232621    58A      0.236521    59A      0.244369  \n      60A      0.249060    61A      0.252533    62A      0.266634  \n      63A      0.268342    64A      0.272739    65A      0.279501  \n      66A      0.288447    67A      0.293896    68A      0.296539  \n      69A      0.300146    70A      0.305380    71A      0.318869  \n      72A      0.322484    73A      0.325716    74A      0.329939  \n      75A      0.338605    76A      0.344073    77A      0.346997  \n      78A      0.359589    79A      0.363074    80A      0.366530  \n      81A      0.374920    82A      0.386028    83A      0.389741  \n      84A      0.402035    85A      0.411237    86A      0.412644  \n      87A      0.416846    88A      0.428232    89A      0.437750  \n      90A      0.443667    91A      0.445532    92A      0.458978  \n      93A      0.463953    94A      0.472210    95A      0.478336  \n      96A      0.491634    97A      0.496964    98A      0.504440  \n      99A      0.509404   100A      0.519500   101A      0.524357  \n     102A      0.530009   103A      0.538994   104A      0.545499  \n     105A      0.549752   106A      0.552096   107A      0.561627  \n     108A      0.570711   109A      0.575778   110A      0.585884  \n     111A      0.590551   112A      0.593780   113A      0.597991  \n     114A      0.605088   115A      0.611261   116A      0.627279  \n     117A      0.628594   118A      0.634844   119A      0.648519  \n     120A      0.654955   121A      0.658485   122A      0.667343  \n     123A      0.671466   124A      0.683590   125A      0.689787  \n     126A      0.706535   127A      0.717042   128A      0.727831  \n     129A      0.736741   130A      0.738501   131A      0.742121  \n     132A      0.746349   133A      0.757025   134A      0.768152  \n     135A      0.777206   136A      0.782079   137A      0.788733  \n     138A      0.796540   139A      0.800458   140A      0.810218  \n     141A      0.821785   142A      0.826311   143A      0.837733  \n     144A      0.841514   145A      0.851055   146A      0.861435  \n     147A      0.869131   148A      0.873197   149A      0.891636  \n     150A      0.892854   151A      0.895166   152A      0.909631  \n     153A      0.912505   154A      0.918005   155A      0.929810  \n     156A      0.936036   157A      0.968311   158A      0.981331  \n     159A      0.991179   160A      0.996841   161A      1.005491  \n     162A      1.016522   163A      1.033067   164A      1.038937  \n     165A      1.041988   166A      1.053766   167A      1.079124  \n     168A      1.086170   169A      1.086475   170A      1.102612  \n     171A      1.104391   172A      1.124486   173A      1.139787  \n     174A      1.153831   175A      1.159657   176A      1.177026  \n     177A      1.184146   178A      1.193476   179A      1.207160  \n     180A      1.210089   181A      1.227398   182A      1.241469  \n     183A      1.264974   184A      1.275560   185A      1.301479  \n     186A      1.378883   187A      1.392279   188A      1.402319  \n     189A      1.421439   190A      1.459978   191A      1.479723  \n     192A      1.500362   193A      1.520218   194A      1.530907  \n     195A      1.556238   196A      1.573452   197A      1.585711  \n     198A      1.626130   199A      1.635256   200A      1.648029  \n     201A      1.668712   202A      1.691548   203A      1.720907  \n     204A      1.734818   205A      1.767327   206A      1.787689  \n     207A      1.798475   208A      1.825509   209A      1.838606  \n     210A      1.865776   211A      1.880581   212A      1.899509  \n     213A      1.917975   214A      1.922221   215A      1.936717  \n     216A      1.949801   217A      1.965392   218A      1.987452  \n     219A      2.001601   220A      2.010782   221A      2.020449  \n     222A      2.035157   223A      2.048398   224A      2.074440  \n     225A      2.075443   226A      2.090279   227A      2.108673  \n     228A      2.123171   229A      2.140997   230A      2.159570  \n     231A      2.171895   232A      2.177092   233A      2.186488  \n     234A      2.228161   235A      2.283299   236A      2.309963  \n     237A      2.320686   238A      2.351549   239A      2.364413  \n     240A      2.396086   241A      2.404764   242A      2.415807  \n     243A      2.430869   244A      2.450936   245A      2.492401  \n     246A      2.516061   247A      2.520685   248A      2.557185  \n     249A      2.569025   250A      2.618941   251A      2.632854  \n     252A      2.647899   253A      2.659106   254A      2.702099  \n     255A      2.712601   256A      2.728452   257A      2.748567  \n     258A      2.775807   259A      2.791830   260A      2.811070  \n     261A      2.816704   262A      2.829327   263A      2.846351  \n     264A      2.885542   265A      2.921011   266A      2.949108  \n     267A      2.958708   268A      2.978035   269A      3.010017  \n     270A      3.036826   271A      3.049483   272A      3.095998  \n     273A      3.118197   274A      3.142960   275A      3.151115  \n     276A      3.161806   277A      3.186873   278A      3.191904  \n     279A      3.218869   280A      3.225502   281A      3.236368  \n     282A      3.250565   283A      3.257786   284A      3.258873  \n     285A      3.275862   286A      3.300935   287A      3.310330  \n     288A      3.318181   289A      3.350303   290A      3.359909  \n     291A      3.370210   292A      3.389919   293A      3.391999  \n     294A      3.448577   295A      3.458554   296A      3.466316  \n     297A      3.496674   298A      3.498978   299A      3.516820  \n     300A      3.521012   301A      3.527624   302A      3.551954  \n     303A      3.558635   304A      3.571053   305A      3.612539  \n     306A      3.629392   307A      3.630637   308A      3.651349  \n     309A      3.673362   310A      3.682957   311A      3.701779  \n     312A      3.722217   313A      3.729196   314A      3.766793  \n     315A      3.792907   316A      3.812586   317A      3.820268  \n     318A      3.848062   319A      3.877015   320A      3.927344  \n     321A      3.945570   322A      3.982497   323A      4.049180  \n     324A      4.077364   325A      4.121110   326A      4.141486  \n     327A      4.192467   328A      4.205942   329A      4.243559  \n     330A      4.249298   331A      4.273655   332A      4.290435  \n     333A      4.324868   334A      4.376164   335A      4.390118  \n     336A      4.423943   337A      4.459159   338A      4.491408  \n     339A      4.519190   340A      4.573903   341A      4.605093  \n     342A      4.634417   343A      4.670436   344A      4.700738  \n     345A      4.755372   346A      4.781028   347A      4.812624  \n     348A      4.848244   349A      4.883582   350A      4.968118  \n     351A      4.976723   352A      5.018874   353A      5.053151  \n     354A      5.061241   355A      5.092931   356A      5.116956  \n     357A      5.131257   358A      5.150597   359A      5.162080  \n     360A      5.193088   361A      5.212686   362A      5.243584  \n     363A      5.259311   364A      5.297774   365A      5.317966  \n     366A      5.350851   367A      5.354717   368A      5.372554  \n     369A      5.410626   370A      5.420991   371A      5.437132  \n     372A      5.453540   373A      5.477705   374A      5.486778  \n     375A      5.517020   376A      5.542839   377A      5.554156  \n     378A      5.575485   379A      5.614052   380A      5.623946  \n     381A      5.650679   382A      5.662872   383A      5.690838  \n     384A      5.726395   385A      5.745393   386A      5.774893  \n     387A      5.797100   388A      5.815352   389A      5.824732  \n     390A      5.841531   391A      5.851515   392A      5.936895  \n     393A      5.952351   394A      5.995908   395A      6.043029  \n     396A      6.067006   397A      6.125969   398A      6.175250  \n     399A      6.247234   400A      6.278420   401A      6.300052  \n     402A      6.436865   403A      6.532579   404A      6.574358  \n     405A      6.880651   406A     23.597670   407A     23.732670  \n     408A     23.896139   409A     23.922604   410A     24.200647  \n     411A     33.190558   412A     33.407132   413A     33.489553  \n     414A     33.555190   415A     33.743199  \n\n    Final Occupation by Irrep:\n              A \n    DOCC [    35 ]\n\n  @DF-RKS Final Energy:  -465.68780371143635\n\n   => Energetics <=\n\n    Nuclear Repulsion Energy =            501.2235939031376120\n    One-Electron Energy =               -1625.8064699430494784\n    Two-Electron Energy =                 678.7484897747627883\n    DFT Exchange-Correlation Energy =     -19.9472878232514219\n    Empirical Dispersion Energy =           0.0000000000000000\n    VV10 Nonlocal Energy =                  0.0938703769639714\n    Total Energy =                       -465.6878037114364020\n\nComputation Completed\n\n\nProperties will be evaluated at   0.000000,   0.000000,   0.000000 [a0]\n\nProperties computed using the SCF density matrix\n\n  Nuclear Dipole Moment: [e a0]\n     X:    -0.8453      Y:    -1.3883      Z:    -0.6829\n\n  Electronic Dipole Moment: [e a0]\n     X:     1.5109      Y:     0.6593      Z:     0.3059\n\n  Dipole Moment: [e a0]\n     X:     0.6656      Y:    -0.7290      Z:    -0.3769     Total:     1.0566\n\n  Dipole Moment: [D]\n     X:     1.6917      Y:    -1.8528      Z:    -0.9580     Total:     2.6857\n\n\n*** tstop() called on bignimbus at Sun May 16 17:44:20 2021\nModule time:\n\tuser time   =     356.05 seconds =       5.93 minutes\n\tsystem time =      10.75 seconds =       0.18 minutes\n\ttotal time  =         14 seconds =       0.23 minutes\nTotal time:\n\tuser time   =     356.05 seconds =       5.93 minutes\n\tsystem time =      10.75 seconds =       0.18 minutes\n\ttotal time  =         14 seconds =       0.23 minutes\n\n*** tstart() called on bignimbus\n*** at Sun May 16 17:44:20 2021\n\n   => Loading Basis Set <=\n\n    Name: (DEF2-TZVPD AUX)\n    Role: RIFIT\n    Keyword: DF_BASIS_MP2\n    atoms 1-5   entry C          line   211 file /home/ubuntu/pk/Applications/miniconda3/envs/psi4-1.4a2.dev923/share/psi4/basis/def2-tzvpd-ri.gbs \n    atoms 6-10  entry N          line   266 file /home/ubuntu/pk/Applications/miniconda3/envs/psi4-1.4a2.dev923/share/psi4/basis/def2-tzvpd-ri.gbs \n    atoms 11-15 entry H          line    22 file /home/ubuntu/pk/Applications/miniconda3/envs/psi4-1.4a2.dev923/share/psi4/basis/def2-tzvpd-ri.gbs \n\n\t --------------------------------------------------------\n\t                          DF-MP2                         \n\t      2nd-Order Density-Fitted Moller-Plesset Theory     \n\t              RMP2 Wavefunction,  32 Threads             \n\t                                                         \n\t        Rob Parrish, Justin Turney, Andy Simmonett,      \n\t           Ed Hohenstein, and C. David Sherrill          \n\t --------------------------------------------------------\n\n   => Auxiliary Basis Set <=\n\n  Basis Set: (DEF2-TZVPD AUX)\n    Blend: DEF2-TZVPD-RI\n    Number of shells: 310\n    Number of basis function: 1040\n    Number of Cartesian functions: 1280\n    Spherical Harmonics?: true\n    Max angular momentum: 4\n\n\t --------------------------------------------------------\n\t                 NBF =   415, NAUX =  1040\n\t --------------------------------------------------------\n\t   CLASS    FOCC     OCC    AOCC    AVIR     VIR    FVIR\n\t   PAIRS       0      35      35     380     380       0\n\t --------------------------------------------------------\n\n\t-----------------------------------------------------------\n\t ==================> DF-MP2 Energies <==================== \n\t-----------------------------------------------------------\n\t Reference Energy          =    -465.6878037114363451 [Eh]\n\t Singles Energy            =      -0.0000000000000000 [Eh]\n\t Same-Spin Energy          =      -0.5638861505616045 [Eh]\n\t Opposite-Spin Energy      =      -1.6318448045166480 [Eh]\n\t Correlation Energy        =      -2.1957309550782527 [Eh]\n\t Total Energy              =    -467.8835346665146062 [Eh]\n\t-----------------------------------------------------------\n\t ================> DF-SCS-MP2 Energies <================== \n\t-----------------------------------------------------------\n\t SCS Same-Spin Scale       =       0.2200000000000000 [-]\n\t SCS Opposite-Spin Scale   =       0.5200000000000000 [-]\n\t SCS Same-Spin Energy      =      -0.1240549531235530 [Eh]\n\t SCS Opposite-Spin Energy  =      -0.8485592983486571 [Eh]\n\t SCS Correlation Energy    =      -2.1461758156071791 [Eh]\n\t SCS Total Energy          =    -467.8339795270435388 [Eh]\n\t-----------------------------------------------------------\n\n\n\n    DSD-PBEP86-NL Energy Summary\n    ----------------------------\n    DFT Reference Energy                  =  -465.6878037114363451\n    Scaled MP2 Correlation                =    -0.9726142514722100\n    @Final double-hybrid DFT total energy =  -466.6604179629085820\n\n\n*** tstop() called on bignimbus at Sun May 16 17:44:24 2021\nModule time:\n\tuser time   =      82.45 seconds =       1.37 minutes\n\tsystem time =       2.18 seconds =       0.04 minutes\n\ttotal time  =          4 seconds =       0.07 minutes\nTotal time:\n\tuser time   =     438.54 seconds =       7.31 minutes\n\tsystem time =      12.93 seconds =       0.22 minutes\n\ttotal time  =         18 seconds =       0.30 minutes\n\n    Psi4 stopped on: Sunday, 16 May 2021 05:44PM\n    Psi4 wall time for execution: 0:00:17.73\n\n*** Psi4 exiting successfully. Buy a developer a beer!\n",
 "stderr": null,
 "success": true,
 "error": null,
 "tag": "dsd-pbep86-nl def2-tzvpd c3a_a"
}