{
 "id": null,
 "schema_name": "qcschema_output",
 "schema_version": 1,
 "molecule": {
  "validated": true,
  "symbols": [
   "N",
   "C",
   "N",
   "C",
   "C",
   "O",
   "N",
   "C",
   "N",
   "N",
   "C",
   "H",
   "H",
   "H",
   "H",
   "H"
  ],
  "geometry": [
   1.9795091944628955,
   2.1064834459358144,
   -3.2710258001379717,
   3.442157215567254,
   0.04479224306132246,
   -3.8587306251553546,
   3.037755824719278,
   -1.9205229274148177,
   -2.447105209438357,
   1.1329118902577873,
   -1.157073572729854,
   -0.8011537541645827,
   -0.012262141769655663,
   -2.415631172284768,
   1.2151840216989083,
   0.2787556815508495,
   -4.558580598553946,
   1.9767436502584184,
   -1.7942738780763892,
   -0.8301509530256518,
   2.4756313473792826,
   -2.3895376075956043,
   1.6208238316931525,
   1.8860367962364304,
   -4.060055502500323,
   2.879381431248068,
   3.327897829960767,
   -1.3464087863428829,
   2.818910195233415,
   -0.06605029136148675,
   0.4469413067165973,
   1.3279162822471884,
   -1.2830339161563362,
   1.9190379584482444,
   3.80723695884786,
   -4.140299817848581,
   -2.720239679550724,
   -1.6994249707362516,
   3.9722944387418746,
   4.817877834900553,
   0.1317196448323844,
   -5.370511525521616,
   -4.434221275340973,
   4.678400702683921,
   2.8233409544635233,
   -4.866968558070816,
   2.102703993684897,
   4.9095985969689675
  ],
  "name": "C5H5N5O",
  "molecular_charge": 0.0,
  "molecular_multiplicity": 1,
  "masses": [
   14.00307400443,
   12.0,
   14.00307400443,
   12.0,
   12.0,
   15.99491461957,
   14.00307400443,
   12.0,
   14.00307400443,
   14.00307400443,
   12.0,
   1.00782503223,
   1.00782503223,
   1.00782503223,
   1.00782503223,
   1.00782503223
  ],
  "real": [
   true,
   true,
   true,
   true,
   true,
   true,
   true,
   true,
   true,
   true,
   true,
   true,
   true,
   true,
   true,
   true
  ],
  "atom_labels": [
   "",
   "",
   "",
   "",
   "",
   "",
   "",
   "",
   "",
   "",
   "",
   "",
   "",
   "",
   "",
   ""
  ],
  "atomic_numbers": [
   7,
   6,
   7,
   6,
   6,
   8,
   7,
   6,
   7,
   7,
   6,
   1,
   1,
   1,
   1,
   1
  ],
  "mass_numbers": [
   14,
   12,
   14,
   12,
   12,
   16,
   14,
   12,
   14,
   14,
   12,
   1,
   1,
   1,
   1,
   1
  ],
  "fragments": [
   [
    0,
    1,
    2,
    3,
    4,
    5,
    6,
    7,
    8,
    9,
    10,
    11,
    12,
    13,
    14,
    15
   ]
  ],
  "fragment_charges": [
   0.0
  ],
  "fragment_multiplicities": [
   1
  ],
  "fix_com": false,
  "fix_orientation": false,
  "provenance": {
   "creator": "QCElemental",
   "version": "v0.19.0",
   "routine": "qcelemental.molparse.from_string"
  }
 },
 "driver": "energy",
 "model": {
  "method": "m062x-d3",
  "basis": "def2-svpd"
 },
 "keywords": {},
 "protocols": {},
 "extras": {
  "qcvars": {
   "2-BODY DISPERSION CORRECTION ENERGY": -0.00040129,
   "CURRENT DIPOLE X": -3.2163454327943093,
   "CURRENT DIPOLE Y": 6.18880549827008,
   "CURRENT DIPOLE Z": 0.8564586810494651,
   "CURRENT ENERGY": -541.9846238734231,
   "CURRENT REFERENCE ENERGY": -541.9846238734231,
   "DFT FUNCTIONAL TOTAL ENERGY": -541.984222583423,
   "DFT TOTAL ENERGY": -541.9846238734231,
   "DFT VV10 ENERGY": 0.0,
   "DFT XC ENERGY": -34.6821734850886,
   "DISPERSION CORRECTION ENERGY": -0.00040129,
   "M06-2X-D3 DISPERSION CORRECTION ENERGY": -0.00040129,
   "NUCLEAR REPULSION ENERGY": 594.6969861901529,
   "ONE-ELECTRON ENERGY": -1914.9713009933541,
   "PCM POLARIZATION ENERGY": 0.0,
   "PE ENERGY": 0.0,
   "SCF DIPOLE X": -3.2163454327943093,
   "SCF DIPOLE Y": 6.18880549827008,
   "SCF DIPOLE Z": 0.8564586810494651,
   "SCF ITERATION ENERGY": -541.9846238734231,
   "SCF ITERATIONS": 10.0,
   "SCF TOTAL ENERGY": -541.9846238734231,
   "TWO-ELECTRON ENERGY": 812.9722657048669,
   "XC GRID RADIAL POINTS": 75.0,
   "XC GRID SPHERICAL POINTS": 302.0,
   "XC GRID TOTAL POINTS": 337619.0,
   "CURRENT DIPOLE": [
    -1.2654076610970888,
    2.434863435594038,
    0.33695677254154255
   ],
   "SCF DIPOLE": [
    -1.2654076610970888,
    2.434863435594038,
    0.33695677254154255
   ]
  }
 },
 "provenance": {
  "creator": "Psi4",
  "version": "1.4a2.dev923",
  "routine": "psi4.schema_runner.run_qcschema",
  "qcengine_version": "v0.17.0",
  "cpu": "AMD EPYC Processor (with IBPB)",
  "memory": 64.0,
  "wall_time": 19.60727882385254,
  "hostname": "bignimbus",
  "username": "ubuntu",
  "nthreads": 16
 },
 "properties": {
  "calcinfo_nbasis": 263,
  "calcinfo_nmo": 263,
  "calcinfo_nalpha": 39,
  "calcinfo_nbeta": 39,
  "calcinfo_natom": 16,
  "nuclear_repulsion_energy": 594.6969861901529,
  "return_energy": -541.9846238734231,
  "scf_one_electron_energy": -1914.9713009933541,
  "scf_two_electron_energy": 812.9722657048669,
  "scf_xc_energy": -34.6821734850886,
  "scf_dispersion_correction_energy": -0.00040129,
  "scf_dipole_moment": [
   -1.2654076610970888,
   2.434863435594038,
   0.33695677254154255
  ],
  "scf_total_energy": -541.9846238734231,
  "scf_iterations": 10
 },
 "wavefunction": null,
 "return_result": -541.9846238734231,
 "stdout": "\n    -----------------------------------------------------------------------\n          Psi4: An Open-Source Ab Initio Electronic Structure Package\n                               Psi4 1.4a2.dev923 \n\n                         Git: Rev {master} 5de566e \n\n\n    D. G. A. Smith, L. A. Burns, A. C. Simmonett, R. M. Parrish,\n    M. C. Schieber, R. Galvelis, P. Kraus, H. Kruse, R. Di Remigio,\n    A. Alenaizan, A. M. James, S. Lehtola, J. P. Misiewicz, M. Scheurer,\n    R. A. Shaw, J. B. Schriber, Y. Xie, Z. L. Glick, D. A. Sirianni,\n    J. S. O'Brien, J. M. Waldrop, A. Kumar, E. G. Hohenstein,\n    B. P. Pritchard, B. R. Brooks, H. F. Schaefer III, A. Yu. Sokolov,\n    K. Patkowski, A. E. DePrince III, U. Bozkaya, R. A. King,\n    F. A. Evangelista, J. M. Turney, T. D. Crawford, C. D. Sherrill,\n    J. Chem. Phys. 152(18) 184108 (2020). https://doi.org/10.1063/5.0006002\n\n                            Additional Code Authors\n    E. T. Seidl, C. L. Janssen, E. F. Valeev, M. L. Leininger,\n    J. F. Gonthier, R. M. Richard, H. R. McAlexander, M. Saitow, X. Wang,\n    P. Verma, and M. H. Lechner\n\n             Previous Authors, Complete List of Code Contributors,\n                       and Citations for Specific Modules\n    https://github.com/psi4/psi4/blob/master/codemeta.json\n    https://github.com/psi4/psi4/graphs/contributors\n    http://psicode.org/psi4manual/master/introduction.html#citing-psifour\n\n    -----------------------------------------------------------------------\n\n\n    Psi4 started on: Saturday, 24 April 2021 12:02PM\n\n    Process ID: 3781209\n    Host:       bignimbus\n    PSIDATADIR: /home/ubuntu/pk/Applications/miniconda3/envs/psi4-1.4a2.dev923/share/psi4\n    Memory:     59.6 GiB\n    Threads:    16\n    \n  ==> Input QCSchema <==\n\n--------------------------------------------------------------------------\n{'driver': 'energy',\n 'extras': {},\n 'id': None,\n 'keywords': {},\n 'model': {'basis': 'def2-svpd', 'method': 'm062x-d3'},\n 'molecule': {'atom_labels': ['', '', '', '', '', '', '', '', '', '', '', '', '', '', '', ''],\n              'atomic_numbers': [7, 6, 7, 6, 6, 8, 7, 6, 7, 7, 6, 1, 1, 1, 1, 1],\n              'fix_com': False,\n              'fix_orientation': False,\n              'fragment_charges': [0.0],\n              'fragment_multiplicities': [1],\n              'fragments': [[0, 1, 2, 3, 4, 5, 6, 7, 8, 9, 10, 11, 12, 13, 14, 15]],\n              'geometry': [1.9795091944628904, 2.10648344593581, -3.2710258001380055, 3.4421572155672493,\n                           0.044792243061317905, -3.8587306251553883, 3.037755824719273, -1.9205229274148223,\n                           -2.4471052094383907, 1.1329118902577822, -1.1570735727298587, -0.8011537541646163,\n                           -0.012262141769660673, -2.4156311722847725, 1.2151840216988745, 0.2787556815508445,\n                           -4.5585805985539505, 1.9767436502583846, -1.7942738780763943, -0.8301509530256563,\n                           2.475631347379249, -2.389537607595609, 1.6208238316931478, 1.8860367962363966,\n                           -4.060055502500329, 2.8793814312480634, 3.327897829960733, -1.346408786342888,\n                           2.8189101952334106, -0.06605029136152041, 0.4469413067165923, 1.3279162822471837,\n                           -1.28303391615637, 1.9190379584482393, 3.8072369588478554, -4.140299817848614,\n                           -2.720239679550729, -1.6994249707362563, 3.972294438741841, 4.817877834900548,\n                           0.13171964483237986, -5.37051152552165, -4.434221275340978, 4.678400702683916,\n                           2.8233409544634895, -4.8669685580708215, 2.1027039936848926, 4.909598596968934],\n              'mass_numbers': [14, 12, 14, 12, 12, 16, 14, 12, 14, 14, 12, 1, 1, 1, 1, 1],\n              'masses': [14.00307400443, 12.0, 14.00307400443, 12.0, 12.0, 15.99491461957, 14.00307400443, 12.0,\n                         14.00307400443, 14.00307400443, 12.0, 1.00782503223, 1.00782503223, 1.00782503223,\n                         1.00782503223, 1.00782503223],\n              'molecular_charge': 0.0,\n              'molecular_multiplicity': 1,\n              'name': 'C5H5N5O',\n              'provenance': {'creator': 'QCElemental',\n                             'routine': 'qcelemental.molparse.from_string',\n                             'version': 'v0.19.0'},\n              'real': [True, True, True, True, True, True, True, True, True, True, True, True, True, True, True, True],\n              'symbols': ['N', 'C', 'N', 'C', 'C', 'O', 'N', 'C', 'N', 'N', 'C', 'H', 'H', 'H', 'H', 'H'],\n              'validated': True},\n 'protocols': {},\n 'provenance': {'creator': 'QCElemental', 'routine': 'qcelemental.models.results', 'version': 'v0.17.0'},\n 'schema_name': 'qcschema_input',\n 'schema_version': 1}\n--------------------------------------------------------------------------\n\nScratch directory: /tmp/tmprwqz2ax1_psi_scratch/\n\n*** tstart() called on bignimbus\n*** at Sat Apr 24 12:02:50 2021\n\n   => Loading Basis Set <=\n\n    Name: DEF2-SVPD\n    Role: ORBITAL\n    Keyword: BASIS\n    atoms 1, 3, 7, 9-10 entry N          line   125 file /home/ubuntu/pk/Applications/miniconda3/envs/psi4-1.4a2.dev923/share/psi4/basis/def2-svpd.gbs \n    atoms 2, 4-5, 8, 11 entry C          line   101 file /home/ubuntu/pk/Applications/miniconda3/envs/psi4-1.4a2.dev923/share/psi4/basis/def2-svpd.gbs \n    atoms 6             entry O          line   149 file /home/ubuntu/pk/Applications/miniconda3/envs/psi4-1.4a2.dev923/share/psi4/basis/def2-svpd.gbs \n    atoms 12-16         entry H          line    14 file /home/ubuntu/pk/Applications/miniconda3/envs/psi4-1.4a2.dev923/share/psi4/basis/def2-svpd.gbs \n\n   => M06-2X-D3: Empirical Dispersion <=\n\n    Grimme's -D3 (zero-damping) Dispersion Correction\n    Grimme S.; Antony J.; Ehrlich S.; Krieg H. (2010), J. Chem. Phys., 132: 154104\n    Parametrisation from:    L. Goerigk, S. Grimme, Phys. Chem. Chem. Phys. 13, 6670-6688, 2011\n\n        s6 =       1.000000\n        s8 =       0.000000\n       sr6 =       1.619000\n    alpha6 =      14.000000\n       sr8 =       1.000000\n\n\n         ---------------------------------------------------------\n                                   SCF\n               by Justin Turney, Rob Parrish, Andy Simmonett\n                          and Daniel G. A. Smith\n                              RKS Reference\n                       16 Threads,  61035 MiB Core\n         ---------------------------------------------------------\n\n  ==> Geometry <==\n\n    Molecular point group: c1\n    Full point group: C1\n\n    Geometry (in Bohr), charge = 0, multiplicity = 1:\n\n       Center              X                  Y                   Z               Mass       \n    ------------   -----------------  -----------------  -----------------  -----------------\n         N            1.979509194463     2.106483445936    -3.271025800138    14.003074004430\n         C            3.442157215567     0.044792243061    -3.858730625155    12.000000000000\n         N            3.037755824719    -1.920522927415    -2.447105209438    14.003074004430\n         C            1.132911890258    -1.157073572730    -0.801153754165    12.000000000000\n         C           -0.012262141770    -2.415631172285     1.215184021699    12.000000000000\n         O            0.278755681551    -4.558580598554     1.976743650258    15.994914619570\n         N           -1.794273878076    -0.830150953026     2.475631347379    14.003074004430\n         C           -2.389537607596     1.620823831693     1.886036796236    12.000000000000\n         N           -4.060055502500     2.879381431248     3.327897829961    14.003074004430\n         N           -1.346408786343     2.818910195233    -0.066050291361    14.003074004430\n         C            0.446941306717     1.327916282247    -1.283033916156    12.000000000000\n         H            1.919037958448     3.807236958848    -4.140299817849     1.007825032230\n         H           -2.720239679551    -1.699424970736     3.972294438742     1.007825032230\n         H            4.817877834901     0.131719644832    -5.370511525522     1.007825032230\n         H           -4.434221275341     4.678400702684     2.823340954464     1.007825032230\n         H           -4.866968558071     2.102703993685     4.909598596969     1.007825032230\n\n  Running in c1 symmetry.\n\n  Rotational constants: A =      0.06486  B =      0.03693  C =      0.02354 [cm^-1]\n  Rotational constants: A =   1944.44089  B =   1107.15421  C =    705.76789 [MHz]\n  Nuclear repulsion =  594.696986190152870\n\n  Charge       = 0\n  Multiplicity = 1\n  Electrons    = 78\n  Nalpha       = 39\n  Nbeta        = 39\n\n  ==> Algorithm <==\n\n  SCF Algorithm Type is DF.\n  DIIS enabled.\n  MOM disabled.\n  Fractional occupation disabled.\n  Guess Type is SAD.\n  Energy threshold   = 1.00e-06\n  Density threshold  = 1.00e-06\n  Integral threshold = 0.00e+00\n\n  ==> Primary Basis <==\n\n  Basis Set: DEF2-SVPD\n    Blend: DEF2-SVPD\n    Number of shells: 109\n    Number of basis function: 263\n    Number of Cartesian functions: 285\n    Spherical Harmonics?: true\n    Max angular momentum: 2\n\n  ==> DFT Potential <==\n\n   => Composite Functional: M06-2X-D3ZERO <= \n\n    Hybrid M06-2X Meta-GGA XC Functional\n\n    Y. Zhao and D. G. Truhlar,  Theor. Chem. Acc., 120, 215, 2008\n\n\n    Deriv               =              1\n    GGA                 =           TRUE\n    Meta                =           TRUE\n\n    Exchange Hybrid     =           TRUE\n    MP2 Hybrid          =          FALSE\n\n   => Exchange Functionals <=\n\n    1.0000   XC_HYB_MGGA_X_M06_2X\n\n   => Exact (HF) Exchange <=\n\n    0.5400               HF \n\n   => Correlation Functionals <=\n\n    1.0000   XC_MGGA_C_M06_2X\n\n   => LibXC Density Thresholds  <==\n\n    XC_MGGA_C_M06_2X:  1.00E-23 \n    XC_HYB_MGGA_X_M06_2X:  1.00E-20 \n\n   => Molecular Quadrature <=\n\n    Radial Scheme          =       TREUTLER\n    Pruning Scheme         =           NONE\n    Nuclear Scheme         =       TREUTLER\n\n    BS radius alpha        =              1\n    Pruning alpha          =              1\n    Radial Points          =             75\n    Spherical Points       =            302\n    Total Points           =         337619\n    Total Blocks           =           2518\n    Max Points             =            256\n    Max Functions          =            255\n    Weights Tolerance      =       1.00E-15\n\n   => Loading Basis Set <=\n\n    Name: (DEF2-SVPD AUX)\n    Role: JKFIT\n    Keyword: DF_BASIS_SCF\n    atoms 1, 3, 7, 9-10 entry N          line   258 file /home/ubuntu/pk/Applications/miniconda3/envs/psi4-1.4a2.dev923/share/psi4/basis/def2-universal-jkfit.gbs \n    atoms 2, 4-5, 8, 11 entry C          line   198 file /home/ubuntu/pk/Applications/miniconda3/envs/psi4-1.4a2.dev923/share/psi4/basis/def2-universal-jkfit.gbs \n    atoms 6             entry O          line   318 file /home/ubuntu/pk/Applications/miniconda3/envs/psi4-1.4a2.dev923/share/psi4/basis/def2-universal-jkfit.gbs \n    atoms 12-16         entry H          line    18 file /home/ubuntu/pk/Applications/miniconda3/envs/psi4-1.4a2.dev923/share/psi4/basis/def2-universal-jkfit.gbs \n\n  ==> Integral Setup <==\n\n  DFHelper Memory: AOs need 0.485 GiB; user supplied 39.797 GiB. Using in-core AOs.\n\n  ==> MemDFJK: Density-Fitted J/K Matrices <==\n\n    J tasked:                   Yes\n    K tasked:                   Yes\n    wK tasked:                   No\n    OpenMP threads:              16\n    Memory [MiB]:             40751\n    Algorithm:                 Core\n    Schwarz Cutoff:           1E-12\n    Mask sparsity (%):       4.4471\n    Fitting Condition:        1E-10\n\n   => Auxiliary Basis Set <=\n\n  Basis Set: (DEF2-SVPD AUX)\n    Blend: DEF2-UNIVERSAL-JKFIT\n    Number of shells: 305\n    Number of basis function: 927\n    Number of Cartesian functions: 1103\n    Spherical Harmonics?: true\n    Max angular momentum: 4\n\n  Cached 100.0% of DFT collocation blocks in 4.907 [GiB].\n\n  Minimum eigenvalue in the overlap matrix is 3.3258012337E-05.\n  Reciprocal condition number of the overlap matrix is 2.8121585556E-06.\n    Using symmetric orthogonalization.\n\n  ==> Pre-Iterations <==\n\n  SCF Guess: Superposition of Atomic Densities via on-the-fly atomic UHF (no occupation information).\n\n   -------------------------\n    Irrep   Nso     Nmo    \n   -------------------------\n     A        263     263 \n   -------------------------\n    Total     263     263\n   -------------------------\n\n  ==> Iterations <==\n\n                           Total Energy        Delta E     RMS |[F,P]|\n\n   @DF-RKS iter SAD:  -542.10007403263819   -5.42100e+02   0.00000e+00 \n   @DF-RKS iter   1:  -541.60463144943867    4.95443e-01   3.45209e-03 DIIS\n   @DF-RKS iter   2:  -541.52657942248311    7.80520e-02   3.99103e-03 DIIS\n   @DF-RKS iter   3:  -541.96334565437792   -4.36766e-01   8.44179e-04 DIIS\n   @DF-RKS iter   4:  -541.98343963165087   -2.00940e-02   1.93521e-04 DIIS\n   @DF-RKS iter   5:  -541.98447699832116   -1.03737e-03   6.46876e-05 DIIS\n   @DF-RKS iter   6:  -541.98460383836311   -1.26840e-04   2.19632e-05 DIIS\n   @DF-RKS iter   7:  -541.98462034024919   -1.65019e-05   8.48070e-06 DIIS\n   @DF-RKS iter   8:  -541.98462330879897   -2.96855e-06   2.94448e-06 DIIS\n   @DF-RKS iter   9:  -541.98462382867763   -5.19879e-07   1.05520e-06 DIIS\n   @DF-RKS iter  10:  -541.98462387342306   -4.47454e-08   4.21201e-07 DIIS\n  Energy and wave function converged.\n\n\n  ==> Post-Iterations <==\n\n    Orbital Energies [Eh]\n    ---------------------\n\n    Doubly Occupied:                                                      \n\n       1A    -19.604361     2A    -14.829299     3A    -14.825703  \n       4A    -14.814758     5A    -14.766761     6A    -14.756575  \n       7A    -10.700603     8A    -10.666403     9A    -10.639496  \n      10A    -10.623562    11A    -10.572095    12A     -1.163466  \n      13A     -1.132565    14A     -1.114748    15A     -1.018491  \n      16A     -0.997786    17A     -0.971743    18A     -0.858092  \n      19A     -0.763276    20A     -0.746105    21A     -0.707082  \n      22A     -0.687310    23A     -0.631200    24A     -0.624880  \n      25A     -0.600360    26A     -0.570913    27A     -0.563540  \n      28A     -0.528855    29A     -0.513719    30A     -0.501284  \n      31A     -0.498883    32A     -0.474872    33A     -0.392999  \n      34A     -0.382133    35A     -0.358248    36A     -0.349115  \n      37A     -0.346004    38A     -0.336964    39A     -0.266020  \n\n    Virtual:                                                              \n\n      40A      0.013641    41A      0.017733    42A      0.028819  \n      43A      0.034696    44A      0.059408    45A      0.059900  \n      46A      0.074651    47A      0.078499    48A      0.095687  \n      49A      0.102842    50A      0.120212    51A      0.125196  \n      52A      0.143783    53A      0.151020    54A      0.157153  \n      55A      0.168700    56A      0.172076    57A      0.181202  \n      58A      0.194872    59A      0.199432    60A      0.212182  \n      61A      0.213576    62A      0.222118    63A      0.233472  \n      64A      0.244604    65A      0.253498    66A      0.256533  \n      67A      0.259458    68A      0.272900    69A      0.284490  \n      70A      0.290695    71A      0.294161    72A      0.300402  \n      73A      0.306976    74A      0.309739    75A      0.330421  \n      76A      0.331733    77A      0.337123    78A      0.340656  \n      79A      0.347689    80A      0.354198    81A      0.355459  \n      82A      0.363050    83A      0.370704    84A      0.380021  \n      85A      0.382288    86A      0.392783    87A      0.398630  \n      88A      0.408647    89A      0.416121    90A      0.426010  \n      91A      0.428805    92A      0.434743    93A      0.439115  \n      94A      0.449038    95A      0.456205    96A      0.460608  \n      97A      0.473585    98A      0.476921    99A      0.486977  \n     100A      0.495124   101A      0.511790   102A      0.529789  \n     103A      0.540400   104A      0.544894   105A      0.556550  \n     106A      0.560844   107A      0.583761   108A      0.589144  \n     109A      0.593121   110A      0.595564   111A      0.601108  \n     112A      0.610453   113A      0.626864   114A      0.631637  \n     115A      0.634848   116A      0.649543   117A      0.651934  \n     118A      0.664233   119A      0.665769   120A      0.680993  \n     121A      0.692309   122A      0.699741   123A      0.705069  \n     124A      0.715192   125A      0.728981   126A      0.736518  \n     127A      0.744576   128A      0.751740   129A      0.758162  \n     130A      0.759943   131A      0.766194   132A      0.777547  \n     133A      0.779154   134A      0.793029   135A      0.800091  \n     136A      0.818368   137A      0.822036   138A      0.829578  \n     139A      0.832598   140A      0.844373   141A      0.860374  \n     142A      0.882973   143A      0.894711   144A      0.898861  \n     145A      0.933263   146A      0.938266   147A      0.954346  \n     148A      0.960450   149A      1.006567   150A      1.048551  \n     151A      1.051842   152A      1.074537   153A      1.086190  \n     154A      1.100036   155A      1.119850   156A      1.131223  \n     157A      1.147848   158A      1.153222   159A      1.179414  \n     160A      1.196898   161A      1.207995   162A      1.224283  \n     163A      1.229933   164A      1.252939   165A      1.258240  \n     166A      1.283900   167A      1.306560   168A      1.315601  \n     169A      1.327693   170A      1.364621   171A      1.372953  \n     172A      1.380370   173A      1.421331   174A      1.479107  \n     175A      1.519100   176A      1.540781   177A      1.581199  \n     178A      1.599212   179A      1.607400   180A      1.618726  \n     181A      1.632314   182A      1.655017   183A      1.668196  \n     184A      1.691275   185A      1.694278   186A      1.724368  \n     187A      1.741884   188A      1.749253   189A      1.767912  \n     190A      1.781271   191A      1.796194   192A      1.813473  \n     193A      1.819155   194A      1.828741   195A      1.836272  \n     196A      1.845181   197A      1.876817   198A      1.883859  \n     199A      1.889104   200A      1.925584   201A      1.937082  \n     202A      1.941162   203A      1.955512   204A      1.968071  \n     205A      2.010809   206A      2.026181   207A      2.038546  \n     208A      2.047908   209A      2.071197   210A      2.104171  \n     211A      2.125418   212A      2.126907   213A      2.130733  \n     214A      2.157857   215A      2.164200   216A      2.170635  \n     217A      2.180667   218A      2.199712   219A      2.239628  \n     220A      2.300747   221A      2.311618   222A      2.355388  \n     223A      2.370829   224A      2.392241   225A      2.452733  \n     226A      2.470676   227A      2.504590   228A      2.521582  \n     229A      2.545863   230A      2.567102   231A      2.587478  \n     232A      2.620779   233A      2.624969   234A      2.631869  \n     235A      2.655687   236A      2.750699   237A      2.772408  \n     238A      2.791348   239A      2.833126   240A      2.836552  \n     241A      2.869635   242A      2.897621   243A      2.922673  \n     244A      2.954795   245A      3.007551   246A      3.009420  \n     247A      3.052623   248A      3.085133   249A      3.099989  \n     250A      3.198175   251A      3.235341   252A      3.241675  \n     253A      3.287230   254A      3.294530   255A      3.341230  \n     256A      3.379026   257A      3.401092   258A      3.491470  \n     259A      3.562639   260A      3.670802   261A      3.704721  \n     262A      3.745167   263A      3.932602  \n\n    Final Occupation by Irrep:\n              A \n    DOCC [    39 ]\n\n  @DF-RKS Final Energy:  -541.98462387342306\n\n   => Energetics <=\n\n    Nuclear Repulsion Energy =            594.6969861901528702\n    One-Electron Energy =               -1914.9713009933541343\n    Two-Electron Energy =                 812.9722657048669134\n    DFT Exchange-Correlation Energy =     -34.6821734850885974\n    Empirical Dispersion Energy =          -0.0004012900000000\n    VV10 Nonlocal Energy =                  0.0000000000000000\n    Total Energy =                       -541.9846238734230610\n\nComputation Completed\n\n\nProperties will be evaluated at   0.000000,   0.000000,   0.000000 [a0]\n\nProperties computed using the SCF density matrix\n\n  Nuclear Dipole Moment: [e a0]\n     X:    -2.6175      Y:     4.4557      Z:     1.0936\n\n  Electronic Dipole Moment: [e a0]\n     X:     1.3521      Y:    -2.0208      Z:    -0.7567\n\n  Dipole Moment: [e a0]\n     X:    -1.2654      Y:     2.4349      Z:     0.3370     Total:     2.7647\n\n  Dipole Moment: [D]\n     X:    -3.2163      Y:     6.1888      Z:     0.8565     Total:     7.0271\n\n\n*** tstop() called on bignimbus at Sat Apr 24 12:03:05 2021\nModule time:\n\tuser time   =     172.63 seconds =       2.88 minutes\n\tsystem time =      10.03 seconds =       0.17 minutes\n\ttotal time  =         15 seconds =       0.25 minutes\nTotal time:\n\tuser time   =     172.63 seconds =       2.88 minutes\n\tsystem time =      10.03 seconds =       0.17 minutes\n\ttotal time  =         15 seconds =       0.25 minutes\n\n    Psi4 stopped on: Saturday, 24 April 2021 12:03PM\n    Psi4 wall time for execution: 0:00:14.82\n\n*** Psi4 exiting successfully. Buy a developer a beer!\n",
 "stderr": null,
 "success": true,
 "error": null,
 "tag": "m062x-d3 def2-svpd ggg_a"
}