{
 "id": null,
 "schema_name": "qcschema_output",
 "schema_version": 1,
 "molecule": {
  "validated": true,
  "symbols": [
   "C",
   "C",
   "C",
   "C",
   "C",
   "C",
   "C",
   "C",
   "C",
   "C",
   "C",
   "C",
   "C",
   "C",
   "C",
   "C",
   "C",
   "C",
   "C",
   "C",
   "C",
   "C",
   "C",
   "C",
   "H",
   "H",
   "H",
   "H",
   "H",
   "H",
   "H",
   "H",
   "H",
   "H",
   "H",
   "H"
  ],
  "geometry": [
   -7.125236889230193e-17,
   2.3272789817247097,
   -1.343655759129313,
   -7.125236889230193e-17,
   2.3272789817247097,
   1.343655733743748,
   1.3592056403291787e-33,
   0.0,
   2.6873114801802784,
   7.125236889230193e-17,
   -2.3272789817247097,
   1.343655733743748,
   7.125236889230193e-17,
   -2.3272789817247097,
   -1.343655759129313,
   1.3592056403291787e-33,
   0.0,
   -2.687311505565843,
   -1.42176924689857e-16,
   4.643850775222575,
   2.68112829629778,
   -2.12379782544618e-16,
   6.93685012503148,
   1.2909134775822197,
   -2.12379782544618e-16,
   6.93685012503148,
   -1.2909135029677852,
   -1.42176924689857e-16,
   4.643850775222575,
   -2.6811283216833455,
   1.3592056403291787e-33,
   0.0,
   -5.362256630673909,
   -7.196209060660818e-17,
   2.3504602521057008,
   -6.652945243539982,
   -1.404176919380098e-16,
   4.586389872925779,
   -5.362031753264979,
   7.196209060660818e-17,
   -2.3504602521057008,
   -6.652945243539982,
   1.404176919380098e-16,
   -4.586389872925779,
   -5.362031753264979,
   1.42176924689857e-16,
   -4.643850775222575,
   -2.6811283216833455,
   2.1237978254461802e-16,
   -6.93685012503148,
   -1.2909135029677852,
   2.1237978254461802e-16,
   -6.93685012503148,
   1.2909134775822197,
   1.42176924689857e-16,
   -4.643850775222575,
   2.68112829629778,
   1.404176919380098e-16,
   -4.586389872925779,
   5.362031727879413,
   7.196209060660818e-17,
   -2.3504602521057008,
   6.652945218154417,
   1.3592056403291787e-33,
   0.0,
   5.3622566052883425,
   -7.196209060660818e-17,
   2.3504602521057008,
   6.652945218154417,
   -1.404176919380098e-16,
   4.586389872925779,
   5.362031727879413,
   -2.665675301022076e-16,
   8.706756275778528,
   2.3169572849346776,
   -2.665675301022076e-16,
   8.706756275778528,
   -2.3169554205941165,
   -1.9471640764168565e-16,
   6.359920518381456,
   -6.381794110976415,
   -7.185112246052198e-17,
   2.3468357573970726,
   -8.698749518877747,
   7.185112246052198e-17,
   -2.3468357573970726,
   -8.698749518877747,
   1.947164076416856e-16,
   -6.359920518381456,
   -6.381794110976415,
   2.665675301022076e-16,
   -8.706756275778528,
   -2.3169554205941165,
   2.665675301022076e-16,
   -8.706756275778528,
   2.3169572849346776,
   1.947164076416856e-16,
   -6.359920518381456,
   6.381794085590848,
   7.185112246052198e-17,
   -2.3468357573970726,
   8.698749493492182,
   -7.185112246052198e-17,
   2.3468357573970726,
   8.698749493492182,
   -1.9471640764168565e-16,
   6.359920518381456,
   6.381794085590848
  ],
  "name": "C24H12",
  "molecular_charge": 0.0,
  "molecular_multiplicity": 1,
  "masses": [
   12.0,
   12.0,
   12.0,
   12.0,
   12.0,
   12.0,
   12.0,
   12.0,
   12.0,
   12.0,
   12.0,
   12.0,
   12.0,
   12.0,
   12.0,
   12.0,
   12.0,
   12.0,
   12.0,
   12.0,
   12.0,
   12.0,
   12.0,
   12.0,
   1.00782503223,
   1.00782503223,
   1.00782503223,
   1.00782503223,
   1.00782503223,
   1.00782503223,
   1.00782503223,
   1.00782503223,
   1.00782503223,
   1.00782503223,
   1.00782503223,
   1.00782503223
  ],
  "real": [
   true,
   true,
   true,
   true,
   true,
   true,
   true,
   true,
   true,
   true,
   true,
   true,
   true,
   true,
   true,
   true,
   true,
   true,
   true,
   true,
   true,
   true,
   true,
   true,
   true,
   true,
   true,
   true,
   true,
   true,
   true,
   true,
   true,
   true,
   true,
   true
  ],
  "atom_labels": [
   "",
   "",
   "",
   "",
   "",
   "",
   "",
   "",
   "",
   "",
   "",
   "",
   "",
   "",
   "",
   "",
   "",
   "",
   "",
   "",
   "",
   "",
   "",
   "",
   "",
   "",
   "",
   "",
   "",
   "",
   "",
   "",
   "",
   "",
   "",
   ""
  ],
  "atomic_numbers": [
   6,
   6,
   6,
   6,
   6,
   6,
   6,
   6,
   6,
   6,
   6,
   6,
   6,
   6,
   6,
   6,
   6,
   6,
   6,
   6,
   6,
   6,
   6,
   6,
   1,
   1,
   1,
   1,
   1,
   1,
   1,
   1,
   1,
   1,
   1,
   1
  ],
  "mass_numbers": [
   12,
   12,
   12,
   12,
   12,
   12,
   12,
   12,
   12,
   12,
   12,
   12,
   12,
   12,
   12,
   12,
   12,
   12,
   12,
   12,
   12,
   12,
   12,
   12,
   1,
   1,
   1,
   1,
   1,
   1,
   1,
   1,
   1,
   1,
   1,
   1
  ],
  "fragments": [
   [
    0,
    1,
    2,
    3,
    4,
    5,
    6,
    7,
    8,
    9,
    10,
    11,
    12,
    13,
    14,
    15,
    16,
    17,
    18,
    19,
    20,
    21,
    22,
    23,
    24,
    25,
    26,
    27,
    28,
    29,
    30,
    31,
    32,
    33,
    34,
    35
   ]
  ],
  "fragment_charges": [
   0.0
  ],
  "fragment_multiplicities": [
   1
  ],
  "fix_com": false,
  "fix_orientation": false,
  "provenance": {
   "creator": "QCElemental",
   "version": "v0.19.0",
   "routine": "qcelemental.molparse.from_string"
  }
 },
 "driver": "energy",
 "model": {
  "method": "b97m-v",
  "basis": "pcseg-1"
 },
 "keywords": {},
 "protocols": {},
 "extras": {
  "qcvars": {
   "CURRENT DIPOLE X": -1.8797666314539424e-31,
   "CURRENT DIPOLE Y": -9.030097387690099e-15,
   "CURRENT DIPOLE Z": -3.951628994175274e-06,
   "CURRENT ENERGY": -921.7294543812008,
   "CURRENT REFERENCE ENERGY": -921.7294543812008,
   "DFT FUNCTIONAL TOTAL ENERGY": -921.7294543812008,
   "DFT TOTAL ENERGY": -921.7294543812008,
   "DFT VV10 ENERGY": 0.565059627486686,
   "DFT XC ENERGY": -135.5949377588998,
   "NUCLEAR REPULSION ENERGY": 1837.3306064930591,
   "ONE-ELECTRON ENERGY": -4893.624578521303,
   "PCM POLARIZATION ENERGY": 0.0,
   "PE ENERGY": 0.0,
   "SCF DIPOLE X": -1.8797666314539424e-31,
   "SCF DIPOLE Y": -9.030097387690099e-15,
   "SCF DIPOLE Z": -3.951628994175274e-06,
   "SCF ITERATION ENERGY": -921.7294543812008,
   "SCF ITERATIONS": 9.0,
   "SCF TOTAL ENERGY": -921.7294543812008,
   "TWO-ELECTRON ENERGY": 2269.594395778456,
   "XC GRID RADIAL POINTS": 75.0,
   "XC GRID SPHERICAL POINTS": 302.0,
   "XC GRID TOTAL POINTS": 731292.0,
   "CURRENT DIPOLE": [
    -7.395570986446986e-32,
    -3.552713678800501e-15,
    -1.5546904732488542e-06
   ],
   "SCF DIPOLE": [
    -7.395570986446986e-32,
    -3.552713678800501e-15,
    -1.5546904732488542e-06
   ]
  }
 },
 "provenance": {
  "creator": "Psi4",
  "version": "1.4a2.dev923",
  "routine": "psi4.schema_runner.run_qcschema",
  "wall_time": 133.31486463546753,
  "hostname": "bignimbus",
  "memory": 256.0,
  "cpu": "AMD EPYC Processor (with IBPB)",
  "nthreads": 16,
  "username": "ubuntu",
  "qcengine_version": "v0.17.0"
 },
 "properties": {
  "calcinfo_nbasis": 396,
  "calcinfo_nmo": 396,
  "calcinfo_nalpha": 78,
  "calcinfo_nbeta": 78,
  "calcinfo_natom": 36,
  "nuclear_repulsion_energy": 1837.3306064930591,
  "return_energy": -921.7294543812008,
  "scf_one_electron_energy": -4893.624578521303,
  "scf_two_electron_energy": 2269.594395778456,
  "scf_vv10_energy": 0.565059627486686,
  "scf_xc_energy": -135.5949377588998,
  "scf_dipole_moment": [
   -7.395570986446986e-32,
   -3.552713678800501e-15,
   -1.5546904732488542e-06
  ],
  "scf_total_energy": -921.7294543812008,
  "scf_iterations": 9
 },
 "wavefunction": null,
 "return_result": -921.7294543812008,
 "stdout": "\n    -----------------------------------------------------------------------\n          Psi4: An Open-Source Ab Initio Electronic Structure Package\n                               Psi4 1.4a2.dev923 \n\n                         Git: Rev {master} 5de566e \n\n\n    D. G. A. Smith, L. A. Burns, A. C. Simmonett, R. M. Parrish,\n    M. C. Schieber, R. Galvelis, P. Kraus, H. Kruse, R. Di Remigio,\n    A. Alenaizan, A. M. James, S. Lehtola, J. P. Misiewicz, M. Scheurer,\n    R. A. Shaw, J. B. Schriber, Y. Xie, Z. L. Glick, D. A. Sirianni,\n    J. S. O'Brien, J. M. Waldrop, A. Kumar, E. G. Hohenstein,\n    B. P. Pritchard, B. R. Brooks, H. F. Schaefer III, A. Yu. Sokolov,\n    K. Patkowski, A. E. DePrince III, U. Bozkaya, R. A. King,\n    F. A. Evangelista, J. M. Turney, T. D. Crawford, C. D. Sherrill,\n    J. Chem. Phys. 152(18) 184108 (2020). https://doi.org/10.1063/5.0006002\n\n                            Additional Code Authors\n    E. T. Seidl, C. L. Janssen, E. F. Valeev, M. L. Leininger,\n    J. F. Gonthier, R. M. Richard, H. R. McAlexander, M. Saitow, X. Wang,\n    P. Verma, and M. H. Lechner\n\n             Previous Authors, Complete List of Code Contributors,\n                       and Citations for Specific Modules\n    https://github.com/psi4/psi4/blob/master/codemeta.json\n    https://github.com/psi4/psi4/graphs/contributors\n    http://psicode.org/psi4manual/master/introduction.html#citing-psifour\n\n    -----------------------------------------------------------------------\n\n\n    Psi4 started on: Sunday, 25 April 2021 09:38AM\n\n    Process ID: 4003042\n    Host:       bignimbus\n    PSIDATADIR: /home/ubuntu/pk/Applications/miniconda3/envs/psi4-1.4a2.dev923/share/psi4\n    Memory:     238.4 GiB\n    Threads:    16\n    \n  ==> Input QCSchema <==\n\n--------------------------------------------------------------------------\n{'driver': 'energy',\n 'extras': {},\n 'id': None,\n 'keywords': {},\n 'model': {'basis': 'pcseg-1', 'method': 'b97m-v'},\n 'molecule': {'atom_labels': ['', '', '', '', '', '', '', '', '', '', '', '', '', '', '', '', '', '', '', '', '', '',\n                              '', '', '', '', '', '', '', '', '', '', '', '', '', ''],\n              'atomic_numbers': [6, 6, 6, 6, 6, 6, 6, 6, 6, 6, 6, 6, 6, 6, 6, 6, 6, 6, 6, 6, 6, 6, 6, 6, 1, 1, 1, 1, 1,\n                                 1, 1, 1, 1, 1, 1, 1],\n              'fix_com': False,\n              'fix_orientation': False,\n              'fragment_charges': [0.0],\n              'fragment_multiplicities': [1],\n              'fragments': [[0, 1, 2, 3, 4, 5, 6, 7, 8, 9, 10, 11, 12, 13, 14, 15, 16, 17, 18, 19, 20, 21, 22, 23, 24,\n                             25, 26, 27, 28, 29, 30, 31, 32, 33, 34, 35]],\n              'geometry': [-7.125236889230192e-17, 2.3272789817247097, -1.3436557591293115, -7.125236889230192e-17,\n                           2.3272789817247097, 1.3436557337437496, 0.0, -2.465190328815662e-32, 2.6873114801802798,\n                           7.125236889230192e-17, -2.3272789817247097, 1.3436557337437496, 7.125236889230192e-17,\n                           -2.3272789817247097, -1.3436557591293115, 0.0, -2.465190328815662e-32, -2.687311505565842,\n                           -1.4217692468985703e-16, 4.643850775222575, 2.681128296297781, -2.1237978254461797e-16,\n                           6.93685012503148, 1.2909134775822213, -2.1237978254461797e-16, 6.93685012503148,\n                           -1.2909135029677836, -1.4217692468985703e-16, 4.643850775222575, -2.681128321683344, 0.0,\n                           -2.465190328815662e-32, -5.362256630673907, -7.196209060660817e-17, 2.3504602521057008,\n                           -6.65294524353998, -1.404176919380098e-16, 4.586389872925779, -5.3620317532649775,\n                           7.196209060660821e-17, -2.3504602521057008, -6.65294524353998, 1.4041769193800981e-16,\n                           -4.586389872925779, -5.3620317532649775, 1.42176924689857e-16, -4.643850775222575,\n                           -2.681128321683344, 2.1237978254461797e-16, -6.93685012503148, -1.2909135029677836,\n                           2.1237978254461797e-16, -6.93685012503148, 1.2909134775822213, 1.42176924689857e-16,\n                           -4.643850775222575, 2.681128296297781, 1.4041769193800981e-16, -4.586389872925779,\n                           5.3620317278794145, 7.196209060660821e-17, -2.3504602521057008, 6.652945218154419, 0.0,\n                           -2.465190328815662e-32, 5.362256605288344, -7.196209060660817e-17, 2.3504602521057008,\n                           6.652945218154419, -1.404176919380098e-16, 4.586389872925779, 5.3620317278794145,\n                           -2.665675301022076e-16, 8.706756275778528, 2.316957284934679, -2.665675301022076e-16,\n                           8.706756275778528, -2.316955420594115, -1.9471640764168562e-16, 6.359920518381456,\n                           -6.381794110976413, -7.185112246052197e-17, 2.3468357573970726, -8.698749518877746,\n                           7.185112246052197e-17, -2.3468357573970726, -8.698749518877746, 1.9471640764168562e-16,\n                           -6.359920518381456, -6.381794110976413, 2.6656753010220754e-16, -8.706756275778528,\n                           -2.316955420594115, 2.6656753010220754e-16, -8.706756275778528, 2.316957284934679,\n                           1.9471640764168562e-16, -6.359920518381456, 6.38179408559085, 7.185112246052197e-17,\n                           -2.3468357573970726, 8.698749493492183, -7.185112246052197e-17, 2.3468357573970726,\n                           8.698749493492183, -1.9471640764168562e-16, 6.359920518381456, 6.38179408559085],\n              'mass_numbers': [12, 12, 12, 12, 12, 12, 12, 12, 12, 12, 12, 12, 12, 12, 12, 12, 12, 12, 12, 12, 12, 12,\n                               12, 12, 1, 1, 1, 1, 1, 1, 1, 1, 1, 1, 1, 1],\n              'masses': [12.0, 12.0, 12.0, 12.0, 12.0, 12.0, 12.0, 12.0, 12.0, 12.0, 12.0, 12.0, 12.0, 12.0, 12.0, 12.0,\n                         12.0, 12.0, 12.0, 12.0, 12.0, 12.0, 12.0, 12.0, 1.00782503223, 1.00782503223, 1.00782503223,\n                         1.00782503223, 1.00782503223, 1.00782503223, 1.00782503223, 1.00782503223, 1.00782503223,\n                         1.00782503223, 1.00782503223, 1.00782503223],\n              'molecular_charge': 0.0,\n              'molecular_multiplicity': 1,\n              'name': 'C24H12',\n              'provenance': {'creator': 'QCElemental',\n                             'routine': 'qcelemental.molparse.from_string',\n                             'version': 'v0.19.0'},\n              'real': [True, True, True, True, True, True, True, True, True, True, True, True, True, True, True, True,\n                       True, True, True, True, True, True, True, True, True, True, True, True, True, True, True, True,\n                       True, True, True, True],\n              'symbols': ['C', 'C', 'C', 'C', 'C', 'C', 'C', 'C', 'C', 'C', 'C', 'C', 'C', 'C', 'C', 'C', 'C', 'C', 'C',\n                          'C', 'C', 'C', 'C', 'C', 'H', 'H', 'H', 'H', 'H', 'H', 'H', 'H', 'H', 'H', 'H', 'H'],\n              'validated': True},\n 'protocols': {},\n 'provenance': {'creator': 'QCElemental', 'routine': 'qcelemental.models.results', 'version': 'v0.17.0'},\n 'schema_name': 'qcschema_input',\n 'schema_version': 1}\n--------------------------------------------------------------------------\n\nScratch directory: /home/ubuntu/pk/scratch/tmp8duwyktr_psi_scratch/\n\n*** tstart() called on bignimbus\n*** at Sun Apr 25 09:38:22 2021\n\n   => Loading Basis Set <=\n\n    Name: PCSEG-1\n    Role: ORBITAL\n    Keyword: BASIS\n    atoms 1-24  entry C          line    90 file /home/ubuntu/pk/Applications/miniconda3/envs/psi4-1.4a2.dev923/share/psi4/basis/pcseg-1.gbs \n    atoms 25-36 entry H          line    13 file /home/ubuntu/pk/Applications/miniconda3/envs/psi4-1.4a2.dev923/share/psi4/basis/pcseg-1.gbs \n\n\n         ---------------------------------------------------------\n                                   SCF\n               by Justin Turney, Rob Parrish, Andy Simmonett\n                          and Daniel G. A. Smith\n                              RKS Reference\n                       16 Threads, 244140 MiB Core\n         ---------------------------------------------------------\n\n  ==> Geometry <==\n\n    Molecular point group: c2v\n    Full point group: C2v\n\n    Geometry (in Bohr), charge = 0, multiplicity = 1:\n\n       Center              X                  Y                   Z               Mass       \n    ------------   -----------------  -----------------  -----------------  -----------------\n         C           -0.000000000000     2.327278981725    -1.343655759129    12.000000000000\n         C           -0.000000000000     2.327278981725     1.343655733744    12.000000000000\n         C            0.000000000000     0.000000000000     2.687311480180    12.000000000000\n         C            0.000000000000    -2.327278981725     1.343655733744    12.000000000000\n         C            0.000000000000    -2.327278981725    -1.343655759129    12.000000000000\n         C            0.000000000000     0.000000000000    -2.687311505566    12.000000000000\n         C           -0.000000000000     4.643850775223     2.681128296298    12.000000000000\n         C           -0.000000000000     6.936850125031     1.290913477582    12.000000000000\n         C           -0.000000000000     6.936850125031    -1.290913502968    12.000000000000\n         C           -0.000000000000     4.643850775223    -2.681128321683    12.000000000000\n         C            0.000000000000     0.000000000000    -5.362256630674    12.000000000000\n         C           -0.000000000000     2.350460252106    -6.652945243540    12.000000000000\n         C           -0.000000000000     4.586389872926    -5.362031753265    12.000000000000\n         C            0.000000000000    -2.350460252106    -6.652945243540    12.000000000000\n         C            0.000000000000    -4.586389872926    -5.362031753265    12.000000000000\n         C            0.000000000000    -4.643850775223    -2.681128321683    12.000000000000\n         C            0.000000000000    -6.936850125031    -1.290913502968    12.000000000000\n         C            0.000000000000    -6.936850125031     1.290913477582    12.000000000000\n         C            0.000000000000    -4.643850775223     2.681128296298    12.000000000000\n         C            0.000000000000    -4.586389872926     5.362031727879    12.000000000000\n         C            0.000000000000    -2.350460252106     6.652945218154    12.000000000000\n         C            0.000000000000     0.000000000000     5.362256605288    12.000000000000\n         C           -0.000000000000     2.350460252106     6.652945218154    12.000000000000\n         C           -0.000000000000     4.586389872926     5.362031727879    12.000000000000\n         H           -0.000000000000     8.706756275779     2.316957284935     1.007825032230\n         H           -0.000000000000     8.706756275779    -2.316955420594     1.007825032230\n         H           -0.000000000000     6.359920518381    -6.381794110976     1.007825032230\n         H           -0.000000000000     2.346835757397    -8.698749518878     1.007825032230\n         H            0.000000000000    -2.346835757397    -8.698749518878     1.007825032230\n         H            0.000000000000    -6.359920518381    -6.381794110976     1.007825032230\n         H            0.000000000000    -8.706756275779    -2.316955420594     1.007825032230\n         H            0.000000000000    -8.706756275779     2.316957284935     1.007825032230\n         H            0.000000000000    -6.359920518381     6.381794085591     1.007825032230\n         H            0.000000000000    -2.346835757397     8.698749493492     1.007825032230\n         H           -0.000000000000     2.346835757397     8.698749493492     1.007825032230\n         H           -0.000000000000     6.359920518381     6.381794085591     1.007825032230\n\n  Running in c2v symmetry.\n\n  Rotational constants: A =      0.01121  B =      0.01121  C =      0.00560 [cm^-1]\n  Rotational constants: A =    336.04093  B =    336.04092  C =    168.02046 [MHz]\n  Nuclear repulsion = 1837.330606493059122\n\n  Charge       = 0\n  Multiplicity = 1\n  Electrons    = 156\n  Nalpha       = 78\n  Nbeta        = 78\n\n  ==> Algorithm <==\n\n  SCF Algorithm Type is DF.\n  DIIS enabled.\n  MOM disabled.\n  Fractional occupation disabled.\n  Guess Type is SAD.\n  Energy threshold   = 1.00e-06\n  Density threshold  = 1.00e-06\n  Integral threshold = 0.00e+00\n\n  ==> Primary Basis <==\n\n  Basis Set: PCSEG-1\n    Blend: PCSEG-1\n    Number of shells: 180\n    Number of basis function: 396\n    Number of Cartesian functions: 420\n    Spherical Harmonics?: true\n    Max angular momentum: 2\n\n  ==> DFT Potential <==\n\n   => Composite Functional: B97M-V <= \n\n    B97M-V GGA Exchange-Correlation Functional\n\n    N. Mardirossian and M. Head-Gordon, J. Chem. Phys. 142, 074111 (2015)\n\n    Deriv               =              1\n    GGA                 =           TRUE\n    Meta                =           TRUE\n\n    Exchange Hybrid     =          FALSE\n    MP2 Hybrid          =          FALSE\n\n   => Exchange-Correlation Functionals <=\n\n    1.0000   B97M-V exchange-correlation functional\n\n   => LibXC Density Thresholds  <==\n\n    XC_MGGA_XC_B97M_V:  1.00E-23 \n\n   => VV10 Non-Local Parameters <=\n\n    VV10 B              =     6.0000E+00\n    VV10 C              =     1.0000E-02\n\n   => Molecular Quadrature <=\n\n    Radial Scheme          =       TREUTLER\n    Pruning Scheme         =           NONE\n    Nuclear Scheme         =       TREUTLER\n\n    BS radius alpha        =              1\n    Pruning alpha          =              1\n    Radial Points          =             75\n    Spherical Points       =            302\n    Total Points           =         731292\n    Total Blocks           =           5140\n    Max Points             =            256\n    Max Functions          =            305\n    Weights Tolerance      =       1.00E-15\n\n   => Loading Basis Set <=\n\n    Name: (PCSEG-1 AUX)\n    Role: JKFIT\n    Keyword: DF_BASIS_SCF\n    atoms 1-24  entry C          line   198 file /home/ubuntu/pk/Applications/miniconda3/envs/psi4-1.4a2.dev923/share/psi4/basis/def2-universal-jkfit.gbs \n    atoms 25-36 entry H          line    18 file /home/ubuntu/pk/Applications/miniconda3/envs/psi4-1.4a2.dev923/share/psi4/basis/def2-universal-jkfit.gbs \n\n  ==> Integral Setup <==\n\n  DFHelper Memory: AOs need 1.900 GiB; user supplied 168.455 GiB. Using in-core AOs.\n\n  ==> MemDFJK: Density-Fitted J/K Matrices <==\n\n    J tasked:                   Yes\n    K tasked:                    No\n    wK tasked:                   No\n    OpenMP threads:              16\n    Memory [MiB]:            172497\n    Algorithm:                 Core\n    Schwarz Cutoff:           1E-12\n    Mask sparsity (%):      22.7400\n    Fitting Condition:        1E-10\n\n   => Auxiliary Basis Set <=\n\n  Basis Set: (PCSEG-1 AUX)\n    Blend: DEF2-UNIVERSAL-JKFIT\n    Number of shells: 672\n    Number of basis function: 2016\n    Number of Cartesian functions: 2376\n    Spherical Harmonics?: true\n    Max angular momentum: 4\n\n  Cached 100.0% of DFT collocation blocks in 10.359 [GiB].\n\n  Minimum eigenvalue in the overlap matrix is 2.8382391008E-05.\n  Reciprocal condition number of the overlap matrix is 3.7399967744E-06.\n    Using symmetric orthogonalization.\n\n  ==> Pre-Iterations <==\n\n  SCF Guess: Superposition of Atomic Densities via on-the-fly atomic UHF (no occupation information).\n\n   -------------------------\n    Irrep   Nso     Nmo    \n   -------------------------\n     A1       152     152 \n     A2        50      50 \n     B1        58      58 \n     B2       136     136 \n   -------------------------\n    Total     396     396\n   -------------------------\n\n  ==> Iterations <==\n\n                           Total Energy        Delta E     RMS |[F,P]|\n\n   @DF-RKS iter SAD:  -921.95903437977063   -9.21959e+02   0.00000e+00 \n   @DF-RKS iter   1:  -920.62753804596150    1.33150e+00   5.97680e-03 DIIS\n   @DF-RKS iter   2:  -920.34883795512417    2.78700e-01   6.98950e-03 DIIS\n   @DF-RKS iter   3:  -921.66007735583696   -1.31124e+00   1.54123e-03 DIIS\n   @DF-RKS iter   4:  -921.70867003314436   -4.85927e-02   8.66942e-04 DIIS\n   @DF-RKS iter   5:  -921.72829688317813   -1.96269e-02   2.24451e-04 DIIS\n   @DF-RKS iter   6:  -921.72935020325417   -1.05332e-03   6.77035e-05 DIIS\n   @DF-RKS iter   7:  -921.72945359896573   -1.03396e-04   5.48784e-06 DIIS\n   @DF-RKS iter   8:  -921.72945432765232   -7.28687e-07   1.45935e-06 DIIS\n   @DF-RKS iter   9:  -921.72945438120075   -5.35484e-08   1.25301e-07 DIIS\n  Energy and wave function converged.\n\n\n  ==> Post-Iterations <==\n\n    Orbital Energies [Eh]\n    ---------------------\n\n    Doubly Occupied:                                                      \n\n       1A1   -10.195737     2A1   -10.195574     1B2   -10.195573  \n       3A1   -10.195321     2B2   -10.195320     4A1   -10.195273  \n       5A1   -10.195079     6A1   -10.195051     3B2   -10.195049  \n       7A1   -10.194907     4B2   -10.194906     8A1   -10.194778  \n       5B2   -10.186806     6B2   -10.186805     9A1   -10.186804  \n      10A1   -10.186804     7B2   -10.186796    11A1   -10.186796  \n       8B2   -10.186205     9B2   -10.186203    12A1   -10.186201  \n      13A1   -10.186199    14A1   -10.186194    10B2   -10.186192  \n      15A1    -0.902399    16A1    -0.865120    11B2    -0.865118  \n      12B2    -0.817314    17A1    -0.817312    18A1    -0.800706  \n      13B2    -0.768750    19A1    -0.755643    20A1    -0.738830  \n      14B2    -0.738827    15B2    -0.705809    21A1    -0.705808  \n      22A1    -0.625033    16B2    -0.625033    17B2    -0.623263  \n      23A1    -0.623260    24A1    -0.613505    18B2    -0.551968  \n      25A1    -0.544174    19B2    -0.525893    26A1    -0.525890  \n      20B2    -0.520001    27A1    -0.500755    28A1    -0.458794  \n      21B2    -0.458794    29A1    -0.442865    22B2    -0.442854  \n      30A1    -0.441247    23B2    -0.441244    31A1    -0.410714  \n       1B1    -0.410505    24B2    -0.405015    32A1    -0.405013  \n      25B2    -0.402010    26B2    -0.385681    33A1    -0.385672  \n       2B1    -0.369030     1A2    -0.369029    34A1    -0.358067  \n      27B2    -0.356924    28B2    -0.344333    35A1    -0.343522  \n      29B2    -0.343521     2A2    -0.316732     3B1    -0.316731  \n       4B1    -0.302235    30B2    -0.301350    36A1    -0.301348  \n       3A2    -0.258651     5B1    -0.257813     6B1    -0.241662  \n       4A2    -0.241660     5A2    -0.198335     7B1    -0.198331  \n\n    Virtual:                                                              \n\n       8B1    -0.082089     6A2    -0.082088     7A2    -0.047815  \n       9B1    -0.047813    10B1    -0.027519     8A2    -0.011889  \n      11B1     0.028895    37A1     0.030652    38A1     0.040935  \n      31B2     0.040939    39A1     0.056117    32B2     0.056117  \n       9A2     0.057726    12B1     0.057727    40A1     0.075119  \n      33B2     0.075701    41A1     0.096450    34B2     0.096452  \n      42A1     0.128161    35B2     0.128162    13B1     0.144197  \n      10A2     0.144198    36B2     0.153996    43A1     0.158558  \n      44A1     0.193694    37B2     0.193696    45A1     0.214619  \n      38B2     0.223656    46A1     0.223660    47A1     0.234705  \n      14B1     0.238628    48A1     0.241279    39B2     0.241281  \n      40B2     0.253777    49A1     0.253778    41B2     0.270707  \n      50A1     0.270723    42B2     0.299156    51A1     0.299169  \n      43B2     0.305968    52A1     0.336230    44B2     0.360834  \n      45B2     0.377308    53A1     0.377312    54A1     0.379835  \n      55A1     0.383256    46B2     0.383262    15B1     0.387815  \n      47B2     0.396941    56A1     0.401437    57A1     0.408551  \n      16B1     0.408837    11A2     0.408838    58A1     0.414983  \n      48B2     0.414996    12A2     0.436795    17B1     0.436797  \n      59A1     0.442803    49B2     0.446108    60A1     0.446108  \n      18B1     0.452580    50B2     0.464291    61A1     0.465388  \n      51B2     0.465391    19B1     0.470245    62A1     0.474661  \n      13A2     0.480737    63A1     0.508570    52B2     0.508573  \n      20B1     0.510204    14A2     0.510205    53B2     0.511352  \n      64A1     0.511356    54B2     0.518244    15A2     0.524765  \n      21B1     0.524772    55B2     0.528242    65A1     0.528246  \n      66A1     0.531562    56B2     0.531568    67A1     0.531811  \n      57B2     0.531818    68A1     0.543020    69A1     0.560463  \n      22B1     0.565018    58B2     0.572487    16A2     0.595814  \n      23B1     0.595828    17A2     0.609263    24B1     0.609276  \n      59B2     0.619278    60B2     0.626742    70A1     0.626744  \n      61B2     0.643760    71A1     0.643760    18A2     0.662836  \n      62B2     0.670113    72A1     0.670126    25B1     0.671847  \n      73A1     0.688075    74A1     0.696563    63B2     0.696571  \n      26B1     0.712367    19A2     0.712384    75A1     0.717696  \n      64B2     0.724720    20A2     0.776472    27B1     0.776478  \n      76A1     0.779703    77A1     0.821734    65B2     0.821747  \n      78A1     0.829080    66B2     0.829091    67B2     0.859263  \n      79A1     0.859273    68B2     0.884928    80A1     0.884934  \n      81A1     0.894382    28B1     0.902854    69B2     0.907724  \n      82A1     0.911194    70B2     0.911204    71B2     0.920647  \n      72B2     0.934449    83A1     0.946744    84A1     0.964876  \n      73B2     0.964882    74B2     1.035023    85A1     1.035034  \n      86A1     1.043035    75B2     1.057532    87A1     1.057556  \n      76B2     1.074367    77B2     1.127450    88A1     1.127458  \n      78B2     1.150530    89A1     1.150536    21A2     1.156354  \n      90A1     1.171978    79B2     1.171979    91A1     1.173157  \n      29B1     1.173625    22A2     1.215862    30B1     1.215863  \n      31B1     1.226776    23A2     1.226779    80B2     1.234819  \n      24A2     1.261462    32B1     1.293703    25A2     1.293706  \n      33B1     1.295203    26A2     1.295217    27A2     1.315275  \n      28A2     1.325064    34B1     1.332991    92A1     1.340516  \n      81B2     1.359622    93A1     1.359628    29A2     1.360216  \n      35B1     1.360226    94A1     1.368387    82B2     1.372674  \n      36B1     1.373033    30A2     1.373043    95A1     1.403692  \n      83B2     1.403707    84B2     1.437901    96A1     1.437903  \n      85B2     1.503330    97A1     1.503360    98A1     1.515573  \n      99A1     1.516865    86B2     1.516893   100A1     1.582164  \n      87B2     1.582171    88B2     1.591122    89B2     1.618400  \n     101A1     1.635748   102A1     1.675539    90B2     1.677930  \n     103A1     1.677957    37B1     1.679478    91B2     1.684122  \n     104A1     1.684150    92B2     1.709944   105A1     1.717011  \n      93B2     1.717026    31A2     1.719373    38B1     1.719380  \n      39B1     1.752310   106A1     1.762706    32A2     1.765597  \n      40B1     1.765598    94B2     1.769931   107A1     1.781349  \n      95B2     1.781365    41B1     1.788069    33A2     1.807548  \n      42B1     1.807557   108A1     1.812862    96B2     1.812881  \n     109A1     1.815948   110A1     1.854490    97B2     1.876087  \n     111A1     1.895283    98B2     1.895298    99B2     1.909484  \n     112A1     1.909490    34A2     1.937258    43B1     1.937975  \n      35A2     1.937995   113A1     1.940162   100B2     1.940165  \n     114A1     1.947825   101B2     1.998415   115A1     1.998459  \n     102B2     2.116920   116A1     2.116954    36A2     2.129632  \n      44B1     2.129644   117A1     2.134226   103B2     2.134240  \n      37A2     2.151904   118A1     2.165490   104B2     2.169142  \n     119A1     2.177240   120A1     2.210498   105B2     2.210501  \n     106B2     2.211831   107B2     2.215926   121A1     2.215928  \n      45B1     2.226704   108B2     2.232156    46B1     2.242893  \n      38A2     2.242906    47B1     2.266640    39A2     2.266648  \n      48B1     2.279370    40A2     2.279371    49B1     2.288254  \n      41A2     2.288262    50B1     2.313559    51B1     2.338421  \n     109B2     2.358895   122A1     2.358931    52B1     2.361938  \n      42A2     2.361947   123A1     2.373877   124A1     2.393683  \n     110B2     2.393685   125A1     2.395123   126A1     2.405473  \n     111B2     2.405493    43A2     2.435329    44A2     2.440143  \n     127A1     2.444691   112B2     2.444703   113B2     2.473705  \n     114B2     2.482824   128A1     2.482841   115B2     2.511064  \n      53B1     2.528745   129A1     2.536076   116B2     2.536088  \n     130A1     2.571564    45A2     2.572987    54B1     2.572999  \n      55B1     2.591294    46A2     2.591295    47A2     2.595491  \n     131A1     2.605908   117B2     2.605913   132A1     2.667127  \n      48A2     2.697847    56B1     2.697850   133A1     2.704123  \n     118B2     2.704126    57B1     2.705475    49A2     2.705489  \n     119B2     2.731376   120B2     2.758641   134A1     2.758654  \n     121B2     2.790415   135A1     2.804476   122B2     2.804482  \n      50A2     2.808347    58B1     2.813964   136A1     2.903772  \n     123B2     2.910403   137A1     2.910408   138A1     2.960234  \n     124B2     2.960244   139A1     3.023534   140A1     3.112704  \n     125B2     3.112719   141A1     3.157706   126B2     3.174771  \n     142A1     3.181414   127B2     3.181428   143A1     3.204108  \n     128B2     3.204111   144A1     3.252754   145A1     3.255709  \n     129B2     3.261900   146A1     3.282041   130B2     3.282051  \n     131B2     3.331251   147A1     3.331260   132B2     3.379697  \n     148A1     3.379719   133B2     3.419112   149A1     3.533171  \n     150A1     3.706244   134B2     3.706254   151A1     3.779545  \n     135B2     3.779554   152A1     3.788864   136B2     3.939296  \n\n    Final Occupation by Irrep:\n             A1    A2    B1    B2 \n    DOCC [    36,    5,    7,   30 ]\n\n  @DF-RKS Final Energy:  -921.72945438120075\n\n   => Energetics <=\n\n    Nuclear Repulsion Energy =           1837.3306064930591219\n    One-Electron Energy =               -4893.6245785213031922\n    Two-Electron Energy =                2269.5943957784561462\n    DFT Exchange-Correlation Energy =    -135.5949377588997891\n    Empirical Dispersion Energy =           0.0000000000000000\n    VV10 Nonlocal Energy =                  0.5650596274866860\n    Total Energy =                       -921.7294543812007532\n\nComputation Completed\n\n\nProperties will be evaluated at   0.000000,   0.000000,   0.000000 [a0]\n\nProperties computed using the SCF density matrix\n\n  Nuclear Dipole Moment: [e a0]\n     X:    -0.0000      Y:    -0.0000      Z:     0.0000\n\n  Electronic Dipole Moment: [e a0]\n     X:     0.0000      Y:     0.0000      Z:    -0.0000\n\n  Dipole Moment: [e a0]\n     X:    -0.0000      Y:    -0.0000      Z:    -0.0000     Total:     0.0000\n\n  Dipole Moment: [D]\n     X:    -0.0000      Y:    -0.0000      Z:    -0.0000     Total:     0.0000\n\n\n*** tstop() called on bignimbus at Sun Apr 25 09:40:30 2021\nModule time:\n\tuser time   =    1938.28 seconds =      32.30 minutes\n\tsystem time =      22.64 seconds =       0.38 minutes\n\ttotal time  =        128 seconds =       2.13 minutes\nTotal time:\n\tuser time   =    1938.28 seconds =      32.30 minutes\n\tsystem time =      22.64 seconds =       0.38 minutes\n\ttotal time  =        128 seconds =       2.13 minutes\n\n    Psi4 stopped on: Sunday, 25 April 2021 09:40AM\n    Psi4 wall time for execution: 0:02:08.12\n\n*** Psi4 exiting successfully. Buy a developer a beer!\n",
 "stderr": null,
 "success": true,
 "error": null,
 "tag": "b97m-v pcseg-1 c2c2pd_b"
}