{
 "id": null,
 "schema_name": "qcschema_output",
 "schema_version": 1,
 "molecule": {
  "validated": true,
  "symbols": [
   "C",
   "C",
   "C",
   "C",
   "C",
   "C",
   "C",
   "C",
   "C",
   "C",
   "C",
   "N",
   "N",
   "O",
   "O",
   "H",
   "H",
   "H",
   "H",
   "H",
   "H",
   "H",
   "H",
   "H",
   "H",
   "H",
   "H",
   "H",
   "H"
  ],
  "geometry": [
   3.5554869353951855,
   -3.23644091877854,
   0.8987056250420546,
   1.9118674021602333,
   -2.1200908793427033,
   -0.8500015780296057,
   -0.0895377578599026,
   -3.5708411847611807,
   -1.8005413780393948,
   -0.4747640977128567,
   -6.044851730949312,
   -0.9774258106692284,
   1.1492816523146046,
   -7.1168631263035325,
   0.8023390412743362,
   3.1792594713516618,
   -5.710740593063869,
   1.7242154754131813,
   2.245761221541251,
   0.606135743631911,
   -1.6208019673426013,
   0.5894710746351033,
   2.4603425768356337,
   -0.03477939668547637,
   1.1230805995851318,
   5.183783743501322,
   -0.9055878720099462,
   -3.646733649982087,
   0.9813503144721908,
   1.3272709438562589,
   -6.402859519713694,
   0.7233157709454254,
   0.5788449118686887,
   2.9003529027692156,
   6.4266093730618,
   0.4517494915748972,
   -2.1008904362044465,
   2.0184924833594606,
   -0.4250720922807827,
   -2.8823526603172738,
   0.225894501297913,
   3.416123180331954,
   0.03665248361979522,
   6.059902349238332,
   -2.7759424149557046,
   -6.847648137314955,
   -1.289714984198526,
   0.40530569258952154,
   3.2907967764545596,
   8.236747793019846,
   -0.030142008773602413,
   -7.5839118919590796,
   1.5008927181443117,
   2.0856010304673585,
   -6.862550517540313,
   1.6648434670629062,
   -1.2028077764742098,
   -2.8259896888993694,
   2.8377152149111846,
   -2.004539203008694,
   0.9944960751044792,
   2.2142076387208767,
   1.9726955636496297,
   1.765243552085961,
   0.8727024006151176,
   -3.618098862765987,
   4.218451993085055,
   1.1801306056091,
   -1.3713845749479217,
   -1.3569543934909605,
   -2.743813884311314,
   -3.1906276953784207,
   5.141386673854155,
   -2.150908532996669,
   1.6280132978183732,
   -2.0421180639765826,
   -7.138797177441721,
   -1.729223114064617,
   4.456661419829641,
   -6.532635397356992,
   3.1048512723987964,
   0.8413810157892601,
   -9.03585732999245,
   1.4615057494520332,
   3.4748976750489122,
   5.761297275524113,
   2.171277433543366
  ],
  "name": "C11H14N2O2",
  "molecular_charge": 0.0,
  "molecular_multiplicity": 1,
  "masses": [
   12.0,
   12.0,
   12.0,
   12.0,
   12.0,
   12.0,
   12.0,
   12.0,
   12.0,
   12.0,
   12.0,
   14.00307400443,
   14.00307400443,
   15.99491461957,
   15.99491461957,
   1.00782503223,
   1.00782503223,
   1.00782503223,
   1.00782503223,
   1.00782503223,
   1.00782503223,
   1.00782503223,
   1.00782503223,
   1.00782503223,
   1.00782503223,
   1.00782503223,
   1.00782503223,
   1.00782503223,
   1.00782503223
  ],
  "real": [
   true,
   true,
   true,
   true,
   true,
   true,
   true,
   true,
   true,
   true,
   true,
   true,
   true,
   true,
   true,
   true,
   true,
   true,
   true,
   true,
   true,
   true,
   true,
   true,
   true,
   true,
   true,
   true,
   true
  ],
  "atom_labels": [
   "",
   "",
   "",
   "",
   "",
   "",
   "",
   "",
   "",
   "",
   "",
   "",
   "",
   "",
   "",
   "",
   "",
   "",
   "",
   "",
   "",
   "",
   "",
   "",
   "",
   "",
   "",
   "",
   ""
  ],
  "atomic_numbers": [
   6,
   6,
   6,
   6,
   6,
   6,
   6,
   6,
   6,
   6,
   6,
   7,
   7,
   8,
   8,
   1,
   1,
   1,
   1,
   1,
   1,
   1,
   1,
   1,
   1,
   1,
   1,
   1,
   1
  ],
  "mass_numbers": [
   12,
   12,
   12,
   12,
   12,
   12,
   12,
   12,
   12,
   12,
   12,
   14,
   14,
   16,
   16,
   1,
   1,
   1,
   1,
   1,
   1,
   1,
   1,
   1,
   1,
   1,
   1,
   1,
   1
  ],
  "fragments": [
   [
    0,
    1,
    2,
    3,
    4,
    5,
    6,
    7,
    8,
    9,
    10,
    11,
    12,
    13,
    14,
    15,
    16,
    17,
    18,
    19,
    20,
    21,
    22,
    23,
    24,
    25,
    26,
    27,
    28
   ]
  ],
  "fragment_charges": [
   0.0
  ],
  "fragment_multiplicities": [
   1
  ],
  "fix_com": false,
  "fix_orientation": false,
  "provenance": {
   "creator": "QCElemental",
   "version": "v0.19.0",
   "routine": "qcelemental.molparse.from_string"
  }
 },
 "driver": "energy",
 "model": {
  "method": "dsd-pbep86-nl",
  "basis": "pcseg-1"
 },
 "keywords": {
  "guess": "SAP",
  "freeze_core": "true",
  "dft_vv10_postscf": "true"
 },
 "protocols": {},
 "extras": {
  "qcvars": {
   "CURRENT DIPOLE X": 1.5132467485150656,
   "CURRENT DIPOLE Y": 1.0412353700128023,
   "CURRENT DIPOLE Z": -0.032960698386624104,
   "CURRENT ENERGY": -685.7970222204864,
   "CURRENT REFERENCE ENERGY": -684.7097118370399,
   "DFT FUNCTIONAL TOTAL ENERGY": -684.70971183704,
   "DFT TOTAL ENERGY": -685.7970222204864,
   "DFT VV10 ENERGY": 0.14555531362063573,
   "DFT XC ENERGY": -30.082071696362664,
   "DOUBLE-HYBRID CORRECTION ENERGY": -1.087310383446523,
   "DSD-PBEP86-NL DOUBLE-HYBRID CORRECTION ENERGY": -1.087310383446523,
   "DSD-PBEP86-NL TOTAL ENERGY": -685.7970222204864,
   "NUCLEAR REPULSION ENERGY": 980.0399976067333,
   "ONE-ELECTRON ENERGY": -2877.0598884149404,
   "PCM POLARIZATION ENERGY": 0.0,
   "PE ENERGY": 0.0,
   "SCF DIPOLE X": 1.5132467485150656,
   "SCF DIPOLE Y": 1.0412353700128023,
   "SCF DIPOLE Z": -0.032960698386624104,
   "SCF ITERATION ENERGY": -684.855397967169,
   "SCF ITERATIONS": 13.0,
   "SCF TOTAL ENERGY": -684.7097118370399,
   "TWO-ELECTRON ENERGY": 1242.246695353909,
   "XC GRID RADIAL POINTS": 75.0,
   "XC GRID SPHERICAL POINTS": 302.0,
   "XC GRID TOTAL POINTS": 601554.0,
   "CURRENT DIPOLE": [
    0.5953570811073026,
    0.40965351569055924,
    -0.01296773655847927
   ],
   "SCF DIPOLE": [
    0.5953570811073026,
    0.40965351569055924,
    -0.01296773655847927
   ]
  }
 },
 "provenance": {
  "creator": "Psi4",
  "version": "1.4a2.dev923",
  "routine": "psi4.schema_runner.run_qcschema",
  "hostname": "bignimbus",
  "username": "ubuntu",
  "cpu": "AMD EPYC Processor (with IBPB)",
  "wall_time": 27.722896099090576,
  "nthreads": 32,
  "qcengine_version": "v0.17.0",
  "memory": 200.0
 },
 "properties": {
  "calcinfo_nbasis": 280,
  "calcinfo_nmo": 280,
  "calcinfo_nalpha": 55,
  "calcinfo_nbeta": 55,
  "calcinfo_natom": 29,
  "nuclear_repulsion_energy": 980.0399976067333,
  "return_energy": -685.7970222204864,
  "scf_one_electron_energy": -2877.0598884149404,
  "scf_two_electron_energy": 1242.246695353909,
  "scf_vv10_energy": 0.14555531362063573,
  "scf_xc_energy": -30.082071696362664,
  "scf_dipole_moment": [
   0.5953570811073026,
   0.40965351569055924,
   -0.01296773655847927
  ],
  "scf_total_energy": -684.7097118370399,
  "scf_iterations": 13
 },
 "wavefunction": null,
 "return_result": -685.7970222204864,
 "stdout": "\n    -----------------------------------------------------------------------\n          Psi4: An Open-Source Ab Initio Electronic Structure Package\n                               Psi4 1.4a2.dev923 \n\n                         Git: Rev {master} 5de566e \n\n\n    D. G. A. Smith, L. A. Burns, A. C. Simmonett, R. M. Parrish,\n    M. C. Schieber, R. Galvelis, P. Kraus, H. Kruse, R. Di Remigio,\n    A. Alenaizan, A. M. James, S. Lehtola, J. P. Misiewicz, M. Scheurer,\n    R. A. Shaw, J. B. Schriber, Y. Xie, Z. L. Glick, D. A. Sirianni,\n    J. S. O'Brien, J. M. Waldrop, A. Kumar, E. G. Hohenstein,\n    B. P. Pritchard, B. R. Brooks, H. F. Schaefer III, A. Yu. Sokolov,\n    K. Patkowski, A. E. DePrince III, U. Bozkaya, R. A. King,\n    F. A. Evangelista, J. M. Turney, T. D. Crawford, C. D. Sherrill,\n    J. Chem. Phys. 152(18) 184108 (2020). https://doi.org/10.1063/5.0006002\n\n                            Additional Code Authors\n    E. T. Seidl, C. L. Janssen, E. F. Valeev, M. L. Leininger,\n    J. F. Gonthier, R. M. Richard, H. R. McAlexander, M. Saitow, X. Wang,\n    P. Verma, and M. H. Lechner\n\n             Previous Authors, Complete List of Code Contributors,\n                       and Citations for Specific Modules\n    https://github.com/psi4/psi4/blob/master/codemeta.json\n    https://github.com/psi4/psi4/graphs/contributors\n    http://psicode.org/psi4manual/master/introduction.html#citing-psifour\n\n    -----------------------------------------------------------------------\n\n\n    Psi4 started on: Monday, 17 May 2021 03:43PM\n\n    Process ID: 2525589\n    Host:       bignimbus\n    PSIDATADIR: /home/ubuntu/pk/Applications/miniconda3/envs/psi4-1.4a2.dev923/share/psi4\n    Memory:     186.3 GiB\n    Threads:    32\n    \n  ==> Input QCSchema <==\n\n--------------------------------------------------------------------------\n{'driver': 'energy',\n 'extras': {},\n 'id': None,\n 'keywords': {'dft_vv10_postscf': 'true', 'freeze_core': 'true', 'guess': 'SAP'},\n 'model': {'basis': 'pcseg-1', 'method': 'dsd-pbep86-nl'},\n 'molecule': {'atom_labels': ['', '', '', '', '', '', '', '', '', '', '', '', '', '', '', '', '', '', '', '', '', '',\n                              '', '', '', '', '', '', ''],\n              'atomic_numbers': [6, 6, 6, 6, 6, 6, 6, 6, 6, 6, 6, 7, 7, 8, 8, 1, 1, 1, 1, 1, 1, 1, 1, 1, 1, 1, 1, 1, 1],\n              'fix_com': False,\n              'fix_orientation': False,\n              'fragment_charges': [0.0],\n              'fragment_multiplicities': [1],\n              'fragments': [[0, 1, 2, 3, 4, 5, 6, 7, 8, 9, 10, 11, 12, 13, 14, 15, 16, 17, 18, 19, 20, 21, 22, 23, 24,\n                             25, 26, 27, 28]],\n              'geometry': [3.5554869353951926, -3.236440918778536, 0.8987056250420729, 1.9118674021602402,\n                           -2.1200908793426994, -0.8500015780295875, -0.0895377578598957, -3.5708411847611767,\n                           -1.8005413780393766, -0.47476409771284983, -6.044851730949308, -0.9774258106692102,\n                           1.1492816523146114, -7.116863126303528, 0.8023390412743544, 3.179259471351669,\n                           -5.710740593063864, 1.7242154754131995, 2.245761221541258, 0.6061357436319152,\n                           -1.620801967342583, 0.5894710746351102, 2.4603425768356377, -0.03477939668545815,\n                           1.1230805995851387, 5.183783743501326, -0.905587872009928, -3.64673364998208,\n                           0.981350314472195, 1.327270943856277, -6.402859519713687, 0.7233157709454296,\n                           0.5788449118687069, 2.9003529027692228, 6.426609373061805, 0.4517494915749154,\n                           -2.1008904362044394, 2.0184924833594646, -0.4250720922807645, -2.8823526603172667,\n                           0.22589450129791722, 3.4161231803319723, 0.03665248361980211, 6.059902349238336,\n                           -2.7759424149556864, -6.847648137314948, -1.2897149841985218, 0.40530569258953975,\n                           3.2907967764545667, 8.23674779301985, -0.030142008773584198, -7.5839118919590724,\n                           1.500892718144316, 2.0856010304673767, -6.862550517540306, 1.6648434670629104,\n                           -1.2028077764741916, -2.8259896888993623, 2.8377152149111886, -2.004539203008676,\n                           0.9944960751044861, 2.2142076387208807, 1.972695563649648, 1.765243552085968,\n                           0.8727024006151218, -3.6180988627659687, 4.218451993085062, 1.1801306056091043,\n                           -1.3713845749479034, -1.3569543934909536, -2.74381388431131, -3.1906276953784025,\n                           5.1413866738541625, -2.150908532996665, 1.6280132978183914, -2.0421180639765755,\n                           -7.138797177441717, -1.7292231140645988, 4.456661419829648, -6.532635397356987,\n                           3.1048512723988146, 0.8413810157892669, -9.035857329992446, 1.4615057494520514,\n                           3.4748976750489193, 5.761297275524117, 2.171277433543384],\n              'mass_numbers': [12, 12, 12, 12, 12, 12, 12, 12, 12, 12, 12, 14, 14, 16, 16, 1, 1, 1, 1, 1, 1, 1, 1, 1, 1,\n                               1, 1, 1, 1],\n              'masses': [12.0, 12.0, 12.0, 12.0, 12.0, 12.0, 12.0, 12.0, 12.0, 12.0, 12.0, 14.00307400443,\n                         14.00307400443, 15.99491461957, 15.99491461957, 1.00782503223, 1.00782503223, 1.00782503223,\n                         1.00782503223, 1.00782503223, 1.00782503223, 1.00782503223, 1.00782503223, 1.00782503223,\n                         1.00782503223, 1.00782503223, 1.00782503223, 1.00782503223, 1.00782503223],\n              'molecular_charge': 0.0,\n              'molecular_multiplicity': 1,\n              'name': 'C11H14N2O2',\n              'provenance': {'creator': 'QCElemental',\n                             'routine': 'qcelemental.molparse.from_string',\n                             'version': 'v0.19.0'},\n              'real': [True, True, True, True, True, True, True, True, True, True, True, True, True, True, True, True,\n                       True, True, True, True, True, True, True, True, True, True, True, True, True],\n              'symbols': ['C', 'C', 'C', 'C', 'C', 'C', 'C', 'C', 'C', 'C', 'C', 'N', 'N', 'O', 'O', 'H', 'H', 'H', 'H',\n                          'H', 'H', 'H', 'H', 'H', 'H', 'H', 'H', 'H', 'H'],\n              'validated': True},\n 'protocols': {},\n 'provenance': {'creator': 'QCElemental', 'routine': 'qcelemental.models.results', 'version': 'v0.17.0'},\n 'schema_name': 'qcschema_input',\n 'schema_version': 1}\n--------------------------------------------------------------------------\n\nScratch directory: /home/ubuntu/pk/scratch/tmp7tebq347_psi_scratch/\n\n*** tstart() called on bignimbus\n*** at Mon May 17 15:43:15 2021\n\n   => Loading Basis Set <=\n\n    Name: PCSEG-1\n    Role: ORBITAL\n    Keyword: BASIS\n    atoms 1-11  entry C          line    90 file /home/ubuntu/pk/Applications/miniconda3/envs/psi4-1.4a2.dev923/share/psi4/basis/pcseg-1.gbs \n    atoms 12-13 entry N          line   111 file /home/ubuntu/pk/Applications/miniconda3/envs/psi4-1.4a2.dev923/share/psi4/basis/pcseg-1.gbs \n    atoms 14-15 entry O          line   132 file /home/ubuntu/pk/Applications/miniconda3/envs/psi4-1.4a2.dev923/share/psi4/basis/pcseg-1.gbs \n    atoms 16-29 entry H          line    13 file /home/ubuntu/pk/Applications/miniconda3/envs/psi4-1.4a2.dev923/share/psi4/basis/pcseg-1.gbs \n\n   => DSD-PBEP86-NL: Empirical Dispersion <=\n\n    Grimme's -NL (DFT plus VV10 correlation) \n    Hujo, W.; Grimme, S; (2011), J. Chem. Theory Comput.; 7:3866\n    Parametrisation from:    M. K. Kesharwani, A. Karton, J.M. L. Martin, J. Chem. Theory Comput. 12, 444-454, 2016\n\n         b =      12.800000\n         c =       0.009300\n\n\n         ---------------------------------------------------------\n                                   SCF\n               by Justin Turney, Rob Parrish, Andy Simmonett\n                          and Daniel G. A. Smith\n                              RKS Reference\n                       32 Threads, 190734 MiB Core\n         ---------------------------------------------------------\n\n  ==> Geometry <==\n\n    Molecular point group: c1\n    Full point group: C1\n\n    Geometry (in Bohr), charge = 0, multiplicity = 1:\n\n       Center              X                  Y                   Z               Mass       \n    ------------   -----------------  -----------------  -----------------  -----------------\n         C            3.555486935395    -3.236440918779     0.898705625042    12.000000000000\n         C            1.911867402160    -2.120090879343    -0.850001578030    12.000000000000\n         C           -0.089537757860    -3.570841184761    -1.800541378039    12.000000000000\n         C           -0.474764097713    -6.044851730949    -0.977425810669    12.000000000000\n         C            1.149281652315    -7.116863126304     0.802339041274    12.000000000000\n         C            3.179259471352    -5.710740593064     1.724215475413    12.000000000000\n         C            2.245761221541     0.606135743632    -1.620801967343    12.000000000000\n         C            0.589471074635     2.460342576836    -0.034779396685    12.000000000000\n         C            1.123080599585     5.183783743501    -0.905587872010    12.000000000000\n         C           -3.646733649982     0.981350314472     1.327270943856    12.000000000000\n         C           -6.402859519714     0.723315770945     0.578844911869    12.000000000000\n         N            2.900352902769     6.426609373062     0.451749491575    14.003074004430\n         N           -2.100890436204     2.018492483359    -0.425072092281    14.003074004430\n         O           -2.882352660317     0.225894501298     3.416123180332    15.994914619570\n         O            0.036652483620     6.059902349238    -2.775942414956    15.994914619570\n         H           -6.847648137315    -1.289714984199     0.405305692590     1.007825032230\n         H            3.290796776455     8.236747793020    -0.030142008774     1.007825032230\n         H           -7.583911891959     1.500892718144     2.085601030467     1.007825032230\n         H           -6.862550517540     1.664843467063    -1.202807776474     1.007825032230\n         H           -2.825989688899     2.837715214911    -2.004539203009     1.007825032230\n         H            0.994496075104     2.214207638721     1.972695563650     1.007825032230\n         H            1.765243552086     0.872702400615    -3.618098862766     1.007825032230\n         H            4.218451993085     1.180130605609    -1.371384574948     1.007825032230\n         H           -1.356954393491    -2.743813884311    -3.190627695378     1.007825032230\n         H            5.141386673854    -2.150908532997     1.628013297818     1.007825032230\n         H           -2.042118063977    -7.138797177442    -1.729223114065     1.007825032230\n         H            4.456661419830    -6.532635397357     3.104851272399     1.007825032230\n         H            0.841381015789    -9.035857329992     1.461505749452     1.007825032230\n         H            3.474897675049     5.761297275524     2.171277433543     1.007825032230\n\n  Running in c1 symmetry.\n\n  Rotational constants: A =      0.02825  B =      0.01408  C =      0.01109 [cm^-1]\n  Rotational constants: A =    846.77580  B =    422.03348  C =    332.43779 [MHz]\n  Nuclear repulsion =  980.039997606733323\n\n  Charge       = 0\n  Multiplicity = 1\n  Electrons    = 110\n  Nalpha       = 55\n  Nbeta        = 55\n\n  ==> Algorithm <==\n\n  SCF Algorithm Type is DF.\n  DIIS enabled.\n  MOM disabled.\n  Fractional occupation disabled.\n  Guess Type is SAP.\n  Energy threshold   = 1.00e-06\n  Density threshold  = 1.00e-06\n  Integral threshold = 0.00e+00\n\n  ==> Primary Basis <==\n\n  Basis Set: PCSEG-1\n    Blend: PCSEG-1\n    Number of shells: 132\n    Number of basis function: 280\n    Number of Cartesian functions: 295\n    Spherical Harmonics?: true\n    Max angular momentum: 2\n\n  ==> DFT Potential <==\n\n   => Composite Functional: DSD-PBEP86-NL <= \n\n    DSD-PBEP86-NL (D3BJ parameters) VV10 SCS Double Hybrid XC Functional\n\n    S. Kozuch, J.M.L. Martin, J. Comp. Chem., 34, 2327-2344, 2013\n\n\n    Deriv               =              1\n    GGA                 =           TRUE\n    Meta                =          FALSE\n\n    Exchange Hybrid     =           TRUE\n    MP2 Hybrid          =           TRUE\n\n   => Exchange Functionals <=\n\n    0.3100     XC_GGA_X_PBE\n\n   => Exact (HF) Exchange <=\n\n    0.6900               HF \n\n   => Correlation Functionals <=\n\n    0.4400     XC_GGA_C_P86\n\n   => MP2 Correlation <=\n\n    MP2 SCS Hybrid      =           TRUE\n    MP2 OS Alpha        =       0.520000\n    MP2 SS Alpha        =       0.220000\n\n   => LibXC Density Thresholds  <==\n\n    XC_GGA_C_P86:  1.00E-25 \n    XC_GGA_X_PBE:  1.00E-32 \n\n   => VV10 Non-Local Parameters <=\n\n    VV10 B              =     1.2800E+01\n    VV10 C              =     9.3000E-03\n\n   => Molecular Quadrature <=\n\n    Radial Scheme          =       TREUTLER\n    Pruning Scheme         =           NONE\n    Nuclear Scheme         =       TREUTLER\n\n    BS radius alpha        =              1\n    Pruning alpha          =              1\n    Radial Points          =             75\n    Spherical Points       =            302\n    Total Points           =         601554\n    Total Blocks           =           4328\n    Max Points             =            256\n    Max Functions          =            229\n    Weights Tolerance      =       1.00E-15\n\n   => Loading Basis Set <=\n\n    Name: (PCSEG-1 AUX)\n    Role: JKFIT\n    Keyword: DF_BASIS_SCF\n    atoms 1-11  entry C          line   198 file /home/ubuntu/pk/Applications/miniconda3/envs/psi4-1.4a2.dev923/share/psi4/basis/def2-universal-jkfit.gbs \n    atoms 12-13 entry N          line   258 file /home/ubuntu/pk/Applications/miniconda3/envs/psi4-1.4a2.dev923/share/psi4/basis/def2-universal-jkfit.gbs \n    atoms 14-15 entry O          line   318 file /home/ubuntu/pk/Applications/miniconda3/envs/psi4-1.4a2.dev923/share/psi4/basis/def2-universal-jkfit.gbs \n    atoms 16-29 entry H          line    18 file /home/ubuntu/pk/Applications/miniconda3/envs/psi4-1.4a2.dev923/share/psi4/basis/def2-universal-jkfit.gbs \n\n  ==> Integral Setup <==\n\n  DFHelper Memory: AOs need 0.706 GiB; user supplied 137.092 GiB. Using in-core AOs.\n\n  ==> MemDFJK: Density-Fitted J/K Matrices <==\n\n    J tasked:                   Yes\n    K tasked:                   Yes\n    wK tasked:                   No\n    OpenMP threads:              32\n    Memory [MiB]:            140382\n    Algorithm:                 Core\n    Schwarz Cutoff:           1E-12\n    Mask sparsity (%):      18.7041\n    Fitting Condition:        1E-10\n\n   => Auxiliary Basis Set <=\n\n  Basis Set: (PCSEG-1 AUX)\n    Blend: DEF2-UNIVERSAL-JKFIT\n    Number of shells: 459\n    Number of basis function: 1385\n    Number of Cartesian functions: 1631\n    Spherical Harmonics?: true\n    Max angular momentum: 4\n\n  Cached 100.0% of DFT collocation blocks in 2.607 [GiB].\n\n  Minimum eigenvalue in the overlap matrix is 4.1586254587E-04.\n  Reciprocal condition number of the overlap matrix is 6.2588571238E-05.\n    Using symmetric orthogonalization.\n\n  ==> Pre-Iterations <==\n\n  SCF Guess: Superposition of Atomic Potentials (doi:10.1021/acs.jctc.8b01089).\n\n  ==> SAP guess <==\n\n   => Molecular Quadrature <=\n\n    Radial Scheme          =       TREUTLER\n    Pruning Scheme         =           NONE\n    Nuclear Scheme         =       TREUTLER\n\n    BS radius alpha        =              1\n    Pruning alpha          =              1\n    Radial Points          =             75\n    Spherical Points       =            302\n    Total Points           =         601554\n    Total Blocks           =           4328\n    Max Points             =            256\n    Max Functions          =            229\n    Weights Tolerance      =       1.00E-15\n\n   -------------------------------------------------------\n    Irrep   Nso     Nmo     Nalpha   Nbeta   Ndocc  Nsocc\n   -------------------------------------------------------\n     A        280     280      55      55      55       0\n   -------------------------------------------------------\n    Total     280     280      55      55      55       0\n   -------------------------------------------------------\n\n  VV10: post-SCF option active \n \n  ==> Iterations <==\n\n                           Total Energy        Delta E     RMS |[F,P]|\n\n   @DF-RKS iter   1:  -671.30114022433509   -6.71301e+02   1.70269e-02 DIIS\n   @DF-RKS iter   2:  -600.41275867853506    7.08884e+01   3.31680e-02 DIIS\n   @DF-RKS iter   3:  -678.46701634483929   -7.80543e+01   8.63680e-03 DIIS\n   @DF-RKS iter   4:  -641.04105247233849    3.74260e+01   2.40198e-02 DIIS\n   @DF-RKS iter   5:  -684.41281328553112   -4.33718e+01   3.37039e-03 DIIS\n   @DF-RKS iter   6:  -684.72658004907328   -3.13767e-01   1.68699e-03 DIIS\n   @DF-RKS iter   7:  -684.82621179634339   -9.96317e-02   7.80601e-04 DIIS\n   @DF-RKS iter   8:  -684.85125792535575   -2.50461e-02   2.96755e-04 DIIS\n   @DF-RKS iter   9:  -684.85479803638714   -3.54011e-03   1.07869e-04 DIIS\n   @DF-RKS iter  10:  -684.85534347095529   -5.45435e-04   3.24922e-05 DIIS\n   @DF-RKS iter  11:  -684.85538982725643   -4.63563e-05   1.16330e-05 DIIS\n   @DF-RKS iter  12:  -684.85539738584737   -7.55859e-06   3.39228e-06 DIIS\n   @DF-RKS iter  13:  -684.85539796716898   -5.81322e-07   9.44996e-07 DIIS\n  Energy and wave function converged.\n\n  ==> Computing Non-Self-Consistent VV10 Energy Correction <==\n\n\n  ==> Post-Iterations <==\n\n    Orbital Energies [Eh]\n    ---------------------\n\n    Doubly Occupied:                                                      \n\n       1A    -19.974746     2A    -19.944130     3A    -15.119304  \n       4A    -15.099944     5A    -10.949069     6A    -10.927683  \n       7A    -10.876683     8A    -10.832932     9A    -10.829198  \n      10A    -10.820351    11A    -10.820200    12A    -10.819365  \n      13A    -10.818850    14A    -10.818806    15A    -10.817798  \n      16A     -1.273484    17A     -1.242266    18A     -1.128961  \n      19A     -1.123287    20A     -1.052401    21A     -0.977618  \n      22A     -0.926339    23A     -0.920556    24A     -0.888076  \n      25A     -0.822911    26A     -0.753003    27A     -0.748017  \n      28A     -0.726694    29A     -0.719426    30A     -0.685478  \n      31A     -0.639727    32A     -0.621865    33A     -0.601861  \n      34A     -0.591725    35A     -0.580959    36A     -0.570288  \n      37A     -0.564300    38A     -0.547066    39A     -0.535477  \n      40A     -0.529896    41A     -0.514712    42A     -0.509636  \n      43A     -0.504692    44A     -0.490007    45A     -0.476400  \n      46A     -0.455463    47A     -0.444263    48A     -0.440725  \n      49A     -0.438212    50A     -0.386646    51A     -0.383565  \n      52A     -0.356213    53A     -0.344539    54A     -0.311506  \n      55A     -0.303568  \n\n    Virtual:                                                              \n\n      56A      0.062094    57A      0.066758    58A      0.086821  \n      59A      0.100697    60A      0.107153    61A      0.118910  \n      62A      0.125056    63A      0.138694    64A      0.144210  \n      65A      0.153296    66A      0.162832    67A      0.175849  \n      68A      0.181125    69A      0.201668    70A      0.207387  \n      71A      0.213915    72A      0.219259    73A      0.220490  \n      74A      0.252950    75A      0.266333    76A      0.285237  \n      77A      0.290595    78A      0.324364    79A      0.335111  \n      80A      0.353704    81A      0.366977    82A      0.371865  \n      83A      0.383866    84A      0.386793    85A      0.407523  \n      86A      0.444230    87A      0.458506    88A      0.489675  \n      89A      0.507841    90A      0.521608    91A      0.535546  \n      92A      0.539610    93A      0.551319    94A      0.563865  \n      95A      0.572645    96A      0.580376    97A      0.591415  \n      98A      0.602563    99A      0.613196   100A      0.617612  \n     101A      0.620138   102A      0.638937   103A      0.640521  \n     104A      0.646872   105A      0.648053   106A      0.653268  \n     107A      0.668469   108A      0.679328   109A      0.703438  \n     110A      0.725909   111A      0.732715   112A      0.740580  \n     113A      0.744142   114A      0.753008   115A      0.760746  \n     116A      0.762136   117A      0.776849   118A      0.777418  \n     119A      0.782538   120A      0.789059   121A      0.797057  \n     122A      0.803637   123A      0.809949   124A      0.815496  \n     125A      0.823628   126A      0.829042   127A      0.835593  \n     128A      0.849041   129A      0.858433   130A      0.859841  \n     131A      0.884579   132A      0.903678   133A      0.910312  \n     134A      0.931819   135A      0.977402   136A      0.989345  \n     137A      1.011525   138A      1.028350   139A      1.041147  \n     140A      1.050861   141A      1.096425   142A      1.105894  \n     143A      1.112860   144A      1.151901   145A      1.153596  \n     146A      1.158700   147A      1.194336   148A      1.206149  \n     149A      1.210975   150A      1.259540   151A      1.270781  \n     152A      1.300706   153A      1.309282   154A      1.326757  \n     155A      1.385883   156A      1.394319   157A      1.402972  \n     158A      1.415226   159A      1.449367   160A      1.454570  \n     161A      1.503413   162A      1.524522   163A      1.528258  \n     164A      1.548037   165A      1.557160   166A      1.571001  \n     167A      1.604089   168A      1.628738   169A      1.645596  \n     170A      1.657138   171A      1.660542   172A      1.688909  \n     173A      1.732807   174A      1.746280   175A      1.810821  \n     176A      1.871462   177A      1.877872   178A      1.886033  \n     179A      1.900939   180A      1.912004   181A      1.942487  \n     182A      1.961120   183A      1.966922   184A      1.995404  \n     185A      2.000739   186A      2.021928   187A      2.026910  \n     188A      2.035937   189A      2.038735   190A      2.050790  \n     191A      2.054586   192A      2.056854   193A      2.073773  \n     194A      2.090070   195A      2.094632   196A      2.098506  \n     197A      2.122016   198A      2.137057   199A      2.140472  \n     200A      2.146719   201A      2.166893   202A      2.178567  \n     203A      2.219201   204A      2.237773   205A      2.245885  \n     206A      2.269801   207A      2.276874   208A      2.306765  \n     209A      2.309008   210A      2.337290   211A      2.353600  \n     212A      2.363094   213A      2.386318   214A      2.394397  \n     215A      2.403737   216A      2.411110   217A      2.414929  \n     218A      2.438264   219A      2.452524   220A      2.457852  \n     221A      2.464944   222A      2.472531   223A      2.488552  \n     224A      2.498167   225A      2.501303   226A      2.505277  \n     227A      2.519165   228A      2.529605   229A      2.550741  \n     230A      2.571808   231A      2.580938   232A      2.591706  \n     233A      2.593637   234A      2.650895   235A      2.656424  \n     236A      2.676585   237A      2.678297   238A      2.698757  \n     239A      2.720816   240A      2.755495   241A      2.768909  \n     242A      2.792148   243A      2.807720   244A      2.825853  \n     245A      2.829458   246A      2.846240   247A      2.873119  \n     248A      2.898923   249A      2.916527   250A      2.942869  \n     251A      2.963418   252A      2.974831   253A      2.998651  \n     254A      3.038617   255A      3.049642   256A      3.086272  \n     257A      3.099409   258A      3.187944   259A      3.193328  \n     260A      3.215937   261A      3.221508   262A      3.274464  \n     263A      3.281490   264A      3.295731   265A      3.306365  \n     266A      3.318188   267A      3.330697   268A      3.388938  \n     269A      3.426129   270A      3.442417   271A      3.460769  \n     272A      3.481651   273A      3.510563   274A      3.540619  \n     275A      3.569388   276A      3.591542   277A      3.642199  \n     278A      3.733416   279A      3.762097   280A      4.030244  \n\n    Final Occupation by Irrep:\n              A \n    DOCC [    55 ]\n\n  @DF-RKS Final Energy:  -684.70971183703989\n\n   => Energetics <=\n\n    Nuclear Repulsion Energy =            980.0399976067333228\n    One-Electron Energy =               -2877.0598884149403602\n    Two-Electron Energy =                1242.2466953539089900\n    DFT Exchange-Correlation Energy =     -30.0820716963626644\n    Empirical Dispersion Energy =           0.0000000000000000\n    VV10 Nonlocal Energy =                  0.1455553136206357\n    Total Energy =                       -684.7097118370400040\n\nComputation Completed\n\n\nProperties will be evaluated at   0.000000,   0.000000,   0.000000 [a0]\n\nProperties computed using the SCF density matrix\n\n  Nuclear Dipole Moment: [e a0]\n     X:    -1.6633      Y:    -2.2905      Z:    -0.1560\n\n  Electronic Dipole Moment: [e a0]\n     X:     2.2587      Y:     2.7002      Z:     0.1430\n\n  Dipole Moment: [e a0]\n     X:     0.5954      Y:     0.4097      Z:    -0.0130     Total:     0.7228\n\n  Dipole Moment: [D]\n     X:     1.5132      Y:     1.0412      Z:    -0.0330     Total:     1.8372\n\n\n*** tstop() called on bignimbus at Mon May 17 15:43:35 2021\nModule time:\n\tuser time   =     539.91 seconds =       9.00 minutes\n\tsystem time =      13.01 seconds =       0.22 minutes\n\ttotal time  =         20 seconds =       0.33 minutes\nTotal time:\n\tuser time   =     539.91 seconds =       9.00 minutes\n\tsystem time =      13.01 seconds =       0.22 minutes\n\ttotal time  =         20 seconds =       0.33 minutes\n\n*** tstart() called on bignimbus\n*** at Mon May 17 15:43:35 2021\n\n   => Loading Basis Set <=\n\n    Name: (PCSEG-1 AUX)\n    Role: RIFIT\n    Keyword: DF_BASIS_MP2\n    atoms 1-11  entry C          line   153 file /home/ubuntu/pk/Applications/miniconda3/envs/psi4-1.4a2.dev923/share/psi4/basis/def2-svp-ri.gbs \n    atoms 12-13 entry N          line   193 file /home/ubuntu/pk/Applications/miniconda3/envs/psi4-1.4a2.dev923/share/psi4/basis/def2-svp-ri.gbs \n    atoms 14-15 entry O          line   233 file /home/ubuntu/pk/Applications/miniconda3/envs/psi4-1.4a2.dev923/share/psi4/basis/def2-svp-ri.gbs \n    atoms 16-29 entry H          line    22 file /home/ubuntu/pk/Applications/miniconda3/envs/psi4-1.4a2.dev923/share/psi4/basis/def2-svp-ri.gbs \n\n\t --------------------------------------------------------\n\t                          DF-MP2                         \n\t      2nd-Order Density-Fitted Moller-Plesset Theory     \n\t              RMP2 Wavefunction,  32 Threads             \n\t                                                         \n\t        Rob Parrish, Justin Turney, Andy Simmonett,      \n\t           Ed Hohenstein, and C. David Sherrill          \n\t --------------------------------------------------------\n\n   => Auxiliary Basis Set <=\n\n  Basis Set: (PCSEG-1 AUX)\n    Blend: DEF2-SVP-RI\n    Number of shells: 324\n    Number of basis function: 916\n    Number of Cartesian functions: 1035\n    Spherical Harmonics?: true\n    Max angular momentum: 3\n\n\t --------------------------------------------------------\n\t                 NBF =   280, NAUX =   916\n\t --------------------------------------------------------\n\t   CLASS    FOCC     OCC    AOCC    AVIR     VIR    FVIR\n\t   PAIRS      15      55      40     225     225       0\n\t --------------------------------------------------------\n\n\t-----------------------------------------------------------\n\t ==================> DF-MP2 Energies <==================== \n\t-----------------------------------------------------------\n\t Reference Energy          =    -684.7097118370398903 [Eh]\n\t Singles Energy            =      -0.0000000000000000 [Eh]\n\t Same-Spin Energy          =      -0.6544653619828532 [Eh]\n\t Opposite-Spin Energy      =      -1.8140923150197985 [Eh]\n\t Correlation Energy        =      -2.4685576770026518 [Eh]\n\t Total Energy              =    -687.1782695140425403 [Eh]\n\t-----------------------------------------------------------\n\t ================> DF-SCS-MP2 Energies <================== \n\t-----------------------------------------------------------\n\t SCS Same-Spin Scale       =       0.2200000000000000 [-]\n\t SCS Opposite-Spin Scale   =       0.5200000000000000 [-]\n\t SCS Same-Spin Energy      =      -0.1439823796362277 [Eh]\n\t SCS Opposite-Spin Energy  =      -0.9433280038102952 [Eh]\n\t SCS Correlation Energy    =      -2.3950658986847091 [Eh]\n\t SCS Total Energy          =    -687.1047777357246105 [Eh]\n\t-----------------------------------------------------------\n\n\n\n    DSD-PBEP86-NL Energy Summary\n    ----------------------------\n    DFT Reference Energy                  =  -684.7097118370398903\n    Scaled MP2 Correlation                =    -1.0873103834465230\n    @Final double-hybrid DFT total energy =  -685.7970222204863830\n\n\n*** tstop() called on bignimbus at Mon May 17 15:43:37 2021\nModule time:\n\tuser time   =      60.47 seconds =       1.01 minutes\n\tsystem time =       0.86 seconds =       0.01 minutes\n\ttotal time  =          2 seconds =       0.03 minutes\nTotal time:\n\tuser time   =     600.41 seconds =      10.01 minutes\n\tsystem time =      13.87 seconds =       0.23 minutes\n\ttotal time  =         22 seconds =       0.37 minutes\n\n    Psi4 stopped on: Monday, 17 May 2021 03:43PM\n    Psi4 wall time for execution: 0:00:22.91\n\n*** Psi4 exiting successfully. Buy a developer a beer!\n",
 "stderr": null,
 "success": true,
 "error": null,
 "tag": "dsd-pbep86-nl pcseg-1 phe_a"
}