{
 "id": null,
 "schema_name": "qcschema_output",
 "schema_version": 1,
 "molecule": {
  "validated": true,
  "symbols": [
   "C",
   "C",
   "C",
   "C",
   "C",
   "N",
   "N",
   "N",
   "N",
   "N",
   "H",
   "H",
   "H",
   "H",
   "H"
  ],
  "geometry": [
   -2.6005148446510584,
   0.057862058844925304,
   -0.05834799091184591,
   -0.18166540406503784,
   -1.0514071767988198,
   0.03991776761196013,
   1.8611285375548743,
   0.6342285271095628,
   0.08527119462294801,
   -0.6465380309276636,
   3.967705412417172,
   0.03235886311012896,
   3.108347780357041,
   -3.3625422282337434,
   0.004012971228262092,
   -2.7857080049459246,
   2.5976539714602467,
   -0.05267881253547342,
   1.7553038745292358,
   3.1645718090975947,
   0.09849927750115343,
   0.6309168298818281,
   -3.543955936277695,
   -0.011104837775400238,
   3.9719526196912684,
   -0.9002290867621937,
   0.08716092074840669,
   -4.769920436676645,
   -1.3273071911156626,
   -0.11126032242466495,
   -0.9092099623663019,
   6.004830175660711,
   0.01913078023192442,
   4.406589628546569,
   -4.938573816865572,
   -0.07157607379005133,
   5.787979426256241,
   -0.31630371399572466,
   -0.04700963415909916,
   -6.351621203684847,
   -0.38811330676312217,
   -0.6366041853019416,
   -4.6414190601455125,
   -3.160341532809756,
   -0.6403836375528572
  ],
  "name": "C5H5N5",
  "molecular_charge": 0.0,
  "molecular_multiplicity": 1,
  "masses": [
   12.0,
   12.0,
   12.0,
   12.0,
   12.0,
   14.00307400443,
   14.00307400443,
   14.00307400443,
   14.00307400443,
   14.00307400443,
   1.00782503223,
   1.00782503223,
   1.00782503223,
   1.00782503223,
   1.00782503223
  ],
  "real": [
   true,
   true,
   true,
   true,
   true,
   true,
   true,
   true,
   true,
   true,
   true,
   true,
   true,
   true,
   true
  ],
  "atom_labels": [
   "",
   "",
   "",
   "",
   "",
   "",
   "",
   "",
   "",
   "",
   "",
   "",
   "",
   "",
   ""
  ],
  "atomic_numbers": [
   6,
   6,
   6,
   6,
   6,
   7,
   7,
   7,
   7,
   7,
   1,
   1,
   1,
   1,
   1
  ],
  "mass_numbers": [
   12,
   12,
   12,
   12,
   12,
   14,
   14,
   14,
   14,
   14,
   1,
   1,
   1,
   1,
   1
  ],
  "fragments": [
   [
    0,
    1,
    2,
    3,
    4,
    5,
    6,
    7,
    8,
    9,
    10,
    11,
    12,
    13,
    14
   ]
  ],
  "fragment_charges": [
   0.0
  ],
  "fragment_multiplicities": [
   1
  ],
  "fix_com": false,
  "fix_orientation": false,
  "provenance": {
   "creator": "QCElemental",
   "version": "v0.19.0",
   "routine": "qcelemental.molparse.from_string"
  }
 },
 "driver": "energy",
 "model": {
  "method": "b2plyp-d3bj",
  "basis": "aug-pcseg-2"
 },
 "keywords": {
  "guess": "SAP",
  "freeze_core": "true",
  "dft_vv10_postscf": "true"
 },
 "protocols": {},
 "extras": {
  "qcvars": {
   "2-BODY DISPERSION CORRECTION ENERGY": -0.01264283,
   "B2PLYP-D3(BJ) DISPERSION CORRECTION ENERGY": -0.01264283,
   "B2PLYP-D3BJ DOUBLE-HYBRID CORRECTION ENERGY": -0.583513418273117,
   "B2PLYP-D3BJ TOTAL ENERGY": -467.1446371796907,
   "CURRENT DIPOLE X": 1.6536451326261887,
   "CURRENT DIPOLE Y": -1.8566210150399856,
   "CURRENT DIPOLE Z": -0.9441457965329272,
   "CURRENT ENERGY": -467.1446371796907,
   "CURRENT REFERENCE ENERGY": -466.56112376141755,
   "DFT FUNCTIONAL TOTAL ENERGY": -466.54848093141754,
   "DFT TOTAL ENERGY": -467.1446371796907,
   "DFT VV10 ENERGY": 0.0,
   "DFT XC ENERGY": -30.465529459192087,
   "DISPERSION CORRECTION ENERGY": -0.01264283,
   "DOUBLE-HYBRID CORRECTION ENERGY": -0.583513418273117,
   "NUCLEAR REPULSION ENERGY": 501.22359390313767,
   "ONE-ELECTRON ENERGY": -1626.2258603370706,
   "PCM POLARIZATION ENERGY": 0.0,
   "PE ENERGY": 0.0,
   "SCF DIPOLE X": 1.6536451326261887,
   "SCF DIPOLE Y": -1.8566210150399856,
   "SCF DIPOLE Z": -0.9441457965329272,
   "SCF ITERATION ENERGY": -466.56112376141755,
   "SCF ITERATIONS": 11.0,
   "SCF TOTAL ENERGY": -466.56112376141755,
   "TWO-ELECTRON ENERGY": 688.9193149617074,
   "XC GRID RADIAL POINTS": 75.0,
   "XC GRID SPHERICAL POINTS": 302.0,
   "XC GRID TOTAL POINTS": 317512.0,
   "CURRENT DIPOLE": [
    0.6505940556711689,
    -0.7304509124644443,
    -0.3714555383087126
   ],
   "SCF DIPOLE": [
    0.6505940556711689,
    -0.7304509124644443,
    -0.3714555383087126
   ]
  }
 },
 "provenance": {
  "creator": "Psi4",
  "version": "1.4a2.dev923",
  "routine": "psi4.schema_runner.run_qcschema",
  "cpu": "Intel(R) Xeon(R) CPU E5-2680 v4 @ 2.40GHz",
  "username": "kraus",
  "qcengine_version": "v0.16.0",
  "memory": 120.0,
  "hostname": "z098",
  "wall_time": 39.51727294921875,
  "nthreads": 24
 },
 "properties": {
  "calcinfo_nbasis": 575,
  "calcinfo_nmo": 574,
  "calcinfo_nalpha": 35,
  "calcinfo_nbeta": 35,
  "calcinfo_natom": 15,
  "nuclear_repulsion_energy": 501.22359390313767,
  "return_energy": -467.1446371796907,
  "scf_one_electron_energy": -1626.2258603370706,
  "scf_two_electron_energy": 688.9193149617074,
  "scf_xc_energy": -30.465529459192087,
  "scf_dispersion_correction_energy": -0.01264283,
  "scf_dipole_moment": [
   0.6505940556711689,
   -0.7304509124644443,
   -0.3714555383087126
  ],
  "scf_total_energy": -466.56112376141755,
  "scf_iterations": 11
 },
 "wavefunction": null,
 "return_result": -467.1446371796907,
 "stdout": "\n    -----------------------------------------------------------------------\n          Psi4: An Open-Source Ab Initio Electronic Structure Package\n                               Psi4 1.4a2.dev923 \n\n                         Git: Rev {master} 5de566e \n\n\n    D. G. A. Smith, L. A. Burns, A. C. Simmonett, R. M. Parrish,\n    M. C. Schieber, R. Galvelis, P. Kraus, H. Kruse, R. Di Remigio,\n    A. Alenaizan, A. M. James, S. Lehtola, J. P. Misiewicz, M. Scheurer,\n    R. A. Shaw, J. B. Schriber, Y. Xie, Z. L. Glick, D. A. Sirianni,\n    J. S. O'Brien, J. M. Waldrop, A. Kumar, E. G. Hohenstein,\n    B. P. Pritchard, B. R. Brooks, H. F. Schaefer III, A. Yu. Sokolov,\n    K. Patkowski, A. E. DePrince III, U. Bozkaya, R. A. King,\n    F. A. Evangelista, J. M. Turney, T. D. Crawford, C. D. Sherrill,\n    J. Chem. Phys. 152(18) 184108 (2020). https://doi.org/10.1063/5.0006002\n\n                            Additional Code Authors\n    E. T. Seidl, C. L. Janssen, E. F. Valeev, M. L. Leininger,\n    J. F. Gonthier, R. M. Richard, H. R. McAlexander, M. Saitow, X. Wang,\n    P. Verma, and M. H. Lechner\n\n             Previous Authors, Complete List of Code Contributors,\n                       and Citations for Specific Modules\n    https://github.com/psi4/psi4/blob/master/codemeta.json\n    https://github.com/psi4/psi4/graphs/contributors\n    http://psicode.org/psi4manual/master/introduction.html#citing-psifour\n\n    -----------------------------------------------------------------------\n\n\n    Psi4 started on: Monday, 17 May 2021 07:09PM\n\n    Process ID: 22585\n    Host:       z098\n    PSIDATADIR: /group/f97/kraus/miniconda3/envs/psi4-1.4a2.dev923/share/psi4\n    Memory:     111.8 GiB\n    Threads:    24\n    \n  ==> Input QCSchema <==\n\n--------------------------------------------------------------------------\n{'driver': 'energy',\n 'extras': {},\n 'id': None,\n 'keywords': {'dft_vv10_postscf': 'true', 'freeze_core': 'true', 'guess': 'SAP'},\n 'model': {'basis': 'aug-pcseg-2', 'method': 'b2plyp-d3bj'},\n 'molecule': {'atom_labels': ['', '', '', '', '', '', '', '', '', '', '', '', '', '', ''],\n              'atomic_numbers': [6, 6, 6, 6, 6, 7, 7, 7, 7, 7, 1, 1, 1, 1, 1],\n              'fix_com': False,\n              'fix_orientation': False,\n              'fragment_charges': [0.0],\n              'fragment_multiplicities': [1],\n              'fragments': [[0, 1, 2, 3, 4, 5, 6, 7, 8, 9, 10, 11, 12, 13, 14]],\n              'geometry': [-2.600514844651058, 0.0578620588449254, -0.05834799091184806, -0.1816654040650374,\n                           -1.0514071767988198, 0.03991776761195798, 1.8611285375548747, 0.6342285271095629,\n                           0.08527119462294586, -0.6465380309276632, 3.967705412417172, 0.03235886311012681,\n                           3.1083477803570414, -3.3625422282337434, 0.004012971228259943, -2.785708004945924,\n                           2.5976539714602467, -0.05267881253547557, 1.7553038745292362, 3.1645718090975947,\n                           0.09849927750115128, 0.6309168298818285, -3.543955936277695, -0.011104837775402387,\n                           3.971952619691269, -0.9002290867621936, 0.08716092074840454, -4.769920436676644,\n                           -1.3273071911156626, -0.1112603224246671, -0.9092099623663015, 6.004830175660711,\n                           0.019130780231922273, 4.40658962854657, -4.938573816865572, -0.07157607379005348,\n                           5.787979426256242, -0.31630371399572454, -0.04700963415910131, -6.3516212036848465,\n                           -0.38811330676312206, -0.6366041853019437, -4.641419060145512, -3.160341532809756,\n                           -0.6403836375528593],\n              'mass_numbers': [12, 12, 12, 12, 12, 14, 14, 14, 14, 14, 1, 1, 1, 1, 1],\n              'masses': [12.0, 12.0, 12.0, 12.0, 12.0, 14.00307400443, 14.00307400443, 14.00307400443, 14.00307400443,\n                         14.00307400443, 1.00782503223, 1.00782503223, 1.00782503223, 1.00782503223, 1.00782503223],\n              'molecular_charge': 0.0,\n              'molecular_multiplicity': 1,\n              'name': 'C5H5N5',\n              'provenance': {'creator': 'QCElemental',\n                             'routine': 'qcelemental.molparse.from_string',\n                             'version': 'v0.19.0'},\n              'real': [True, True, True, True, True, True, True, True, True, True, True, True, True, True, True],\n              'symbols': ['C', 'C', 'C', 'C', 'C', 'N', 'N', 'N', 'N', 'N', 'H', 'H', 'H', 'H', 'H'],\n              'validated': True},\n 'protocols': {},\n 'provenance': {'creator': 'QCElemental', 'routine': 'qcelemental.models.results', 'version': 'v0.16.0'},\n 'schema_name': 'qcschema_input',\n 'schema_version': 1}\n--------------------------------------------------------------------------\n\nScratch directory: /scratch/f97/kraus/scratch/tmp9lye8r_m_psi_scratch/\n\n*** tstart() called on z098\n*** at Mon May 17 19:09:55 2021\n\n   => Loading Basis Set <=\n\n    Name: AUG-PCSEG-2\n    Role: ORBITAL\n    Keyword: BASIS\n    atoms 1-5   entry C          line   161 file /group/f97/kraus/miniconda3/envs/psi4-1.4a2.dev923/share/psi4/basis/aug-pcseg-2.gbs \n    atoms 6-10  entry N          line   201 file /group/f97/kraus/miniconda3/envs/psi4-1.4a2.dev923/share/psi4/basis/aug-pcseg-2.gbs \n    atoms 11-15 entry H          line    13 file /group/f97/kraus/miniconda3/envs/psi4-1.4a2.dev923/share/psi4/basis/aug-pcseg-2.gbs \n\n   => B2PLYP-D3(BJ): Empirical Dispersion <=\n\n    Grimme's -D3 (BJ-damping) Dispersion Correction\n    Grimme S.; Ehrlich S.; Goerigk L. (2011), J. Comput. Chem., 32: 1456\n    Parametrisation from:    L. Goerigk, S. Grimme, Phys. Chem. Chem. Phys. 13, 6670-6688, 2011\n\n        s6 =       0.640000\n        s8 =       0.914700\n        a1 =       0.306500\n        a2 =       5.057000\n\n\n         ---------------------------------------------------------\n                                   SCF\n               by Justin Turney, Rob Parrish, Andy Simmonett\n                          and Daniel G. A. Smith\n                              RKS Reference\n                       24 Threads, 114440 MiB Core\n         ---------------------------------------------------------\n\n  ==> Geometry <==\n\n    Molecular point group: c1\n    Full point group: C1\n\n    Geometry (in Bohr), charge = 0, multiplicity = 1:\n\n       Center              X                  Y                   Z               Mass       \n    ------------   -----------------  -----------------  -----------------  -----------------\n         C           -2.600514844651     0.057862058845    -0.058347990912    12.000000000000\n         C           -0.181665404065    -1.051407176799     0.039917767612    12.000000000000\n         C            1.861128537555     0.634228527110     0.085271194623    12.000000000000\n         C           -0.646538030928     3.967705412417     0.032358863110    12.000000000000\n         C            3.108347780357    -3.362542228234     0.004012971228    12.000000000000\n         N           -2.785708004946     2.597653971460    -0.052678812535    14.003074004430\n         N            1.755303874529     3.164571809098     0.098499277501    14.003074004430\n         N            0.630916829882    -3.543955936278    -0.011104837775    14.003074004430\n         N            3.971952619691    -0.900229086762     0.087160920748    14.003074004430\n         N           -4.769920436677    -1.327307191116    -0.111260322425    14.003074004430\n         H           -0.909209962366     6.004830175661     0.019130780232     1.007825032230\n         H            4.406589628547    -4.938573816866    -0.071576073790     1.007825032230\n         H            5.787979426256    -0.316303713996    -0.047009634159     1.007825032230\n         H           -6.351621203685    -0.388113306763    -0.636604185302     1.007825032230\n         H           -4.641419060146    -3.160341532810    -0.640383637553     1.007825032230\n\n  Running in c1 symmetry.\n\n  Rotational constants: A =      0.07881  B =      0.05206  C =      0.03137 [cm^-1]\n  Rotational constants: A =   2362.65971  B =   1560.84141  C =    940.48329 [MHz]\n  Nuclear repulsion =  501.223593903137669\n\n  Charge       = 0\n  Multiplicity = 1\n  Electrons    = 70\n  Nalpha       = 35\n  Nbeta        = 35\n\n  ==> Algorithm <==\n\n  SCF Algorithm Type is DF.\n  DIIS enabled.\n  MOM disabled.\n  Fractional occupation disabled.\n  Guess Type is SAP.\n  Energy threshold   = 1.00e-06\n  Density threshold  = 1.00e-06\n  Integral threshold = 0.00e+00\n\n  ==> Primary Basis <==\n\n  Basis Set: AUG-PCSEG-2\n    Blend: AUG-PCSEG-2\n    Number of shells: 185\n    Number of basis function: 575\n    Number of Cartesian functions: 675\n    Spherical Harmonics?: true\n    Max angular momentum: 3\n\n  ==> DFT Potential <==\n\n   => Composite Functional: B2PLYP-D3BJ <= \n\n    B2PLYP Double Hybrid Exchange-Correlation Functional\n\n    S. Grimme, J. Chem. Phys., 124, 034108, 2006\n\n\n    Deriv               =              1\n    GGA                 =           TRUE\n    Meta                =          FALSE\n\n    Exchange Hybrid     =           TRUE\n    MP2 Hybrid          =           TRUE\n\n   => Exchange Functionals <=\n\n    0.4700     XC_GGA_X_B88\n\n   => Exact (HF) Exchange <=\n\n    0.5300               HF \n\n   => Correlation Functionals <=\n\n    0.7300     XC_GGA_C_LYP\n\n   => MP2 Correlation <=\n\n    0.2700       MP2 \n\n   => LibXC Density Thresholds  <==\n\n    XC_GGA_C_LYP:  1.00E-32 \n    XC_GGA_X_B88:  1.00E-25 \n\n   => Molecular Quadrature <=\n\n    Radial Scheme          =       TREUTLER\n    Pruning Scheme         =           NONE\n    Nuclear Scheme         =       TREUTLER\n\n    BS radius alpha        =              1\n    Pruning alpha          =              1\n    Radial Points          =             75\n    Spherical Points       =            302\n    Total Points           =         317513\n    Total Blocks           =           2382\n    Max Points             =            256\n    Max Functions          =            542\n    Weights Tolerance      =       1.00E-15\n\n   => Loading Basis Set <=\n\n    Name: (AUG-PCSEG-2 AUX)\n    Role: JKFIT\n    Keyword: DF_BASIS_SCF\n    atoms 1-5   entry C          line   198 file /group/f97/kraus/miniconda3/envs/psi4-1.4a2.dev923/share/psi4/basis/def2-universal-jkfit.gbs \n    atoms 6-10  entry N          line   258 file /group/f97/kraus/miniconda3/envs/psi4-1.4a2.dev923/share/psi4/basis/def2-universal-jkfit.gbs \n    atoms 11-15 entry H          line    18 file /group/f97/kraus/miniconda3/envs/psi4-1.4a2.dev923/share/psi4/basis/def2-universal-jkfit.gbs \n\n  ==> Integral Setup <==\n\n  DFHelper Memory: AOs need 2.135 GiB; user supplied 79.753 GiB. Using in-core AOs.\n\n  ==> MemDFJK: Density-Fitted J/K Matrices <==\n\n    J tasked:                   Yes\n    K tasked:                   Yes\n    wK tasked:                   No\n    OpenMP threads:              24\n    Memory [MiB]:             81666\n    Algorithm:                 Core\n    Schwarz Cutoff:           1E-12\n    Mask sparsity (%):       4.2991\n    Fitting Condition:        1E-10\n\n   => Auxiliary Basis Set <=\n\n  Basis Set: (AUG-PCSEG-2 AUX)\n    Blend: DEF2-UNIVERSAL-JKFIT\n    Number of shells: 280\n    Number of basis function: 850\n    Number of Cartesian functions: 1010\n    Spherical Harmonics?: true\n    Max angular momentum: 4\n\n  Cached 100.0% of DFT collocation blocks in 4.066 [GiB].\n\n  Minimum eigenvalue in the overlap matrix is 3.4337964846E-08.\n  Reciprocal condition number of the overlap matrix is 1.6231228927E-09.\n    Using canonical orthogonalization.\n  Overall, 1 of 575 possible MOs eliminated.\n\n\n  ==> Pre-Iterations <==\n\n  SCF Guess: Superposition of Atomic Potentials (doi:10.1021/acs.jctc.8b01089).\n\n  ==> SAP guess <==\n\n   => Molecular Quadrature <=\n\n    Radial Scheme          =       TREUTLER\n    Pruning Scheme         =           NONE\n    Nuclear Scheme         =       TREUTLER\n\n    BS radius alpha        =              1\n    Pruning alpha          =              1\n    Radial Points          =             75\n    Spherical Points       =            302\n    Total Points           =         317512\n    Total Blocks           =           2378\n    Max Points             =            256\n    Max Functions          =            542\n    Weights Tolerance      =       1.00E-15\n\n   -------------------------------------------------------\n    Irrep   Nso     Nmo     Nalpha   Nbeta   Ndocc  Nsocc\n   -------------------------------------------------------\n     A        575     574      35      35      35       0\n   -------------------------------------------------------\n    Total     575     574      35      35      35       0\n   -------------------------------------------------------\n\n  ==> Iterations <==\n\n                           Total Energy        Delta E     RMS |[F,P]|\n\n   @DF-RKS iter   1:  -463.37749451083357   -4.63377e+02   4.37935e-03 DIIS\n   @DF-RKS iter   2:  -448.36766534089764    1.50098e+01   7.95757e-03 DIIS\n   @DF-RKS iter   3:  -466.03332639429544   -1.76657e+01   1.70826e-03 DIIS\n   @DF-RKS iter   4:  -466.40104242599421   -3.67716e-01   1.03337e-03 DIIS\n   @DF-RKS iter   5:  -466.55208471350500   -1.51042e-01   2.40223e-04 DIIS\n   @DF-RKS iter   6:  -466.55884780678650   -6.76309e-03   1.22257e-04 DIIS\n   @DF-RKS iter   7:  -466.56107201486964   -2.22421e-03   1.63481e-05 DIIS\n   @DF-RKS iter   8:  -466.56110476381400   -3.27489e-05   1.04698e-05 DIIS\n   @DF-RKS iter   9:  -466.56112198291100   -1.72191e-05   2.80003e-06 DIIS\n   @DF-RKS iter  10:  -466.56112357119531   -1.58828e-06   8.74347e-07 DIIS\n   @DF-RKS iter  11:  -466.56112376141755   -1.90222e-07   3.73500e-07 DIIS\n  Energy and wave function converged.\n\n\n  ==> Post-Iterations <==\n\n    Orbital Energies [Eh]\n    ---------------------\n\n    Doubly Occupied:                                                      \n\n       1A    -14.907154     2A    -14.860195     3A    -14.844369  \n       4A    -14.835781     5A    -14.829281     6A    -10.715592  \n       7A    -10.705317     8A    -10.699307     9A    -10.688213  \n      10A    -10.646797    11A     -1.176075    12A     -1.114211  \n      13A     -1.067628    14A     -1.016131    15A     -0.983534  \n      16A     -0.881108    17A     -0.765769    18A     -0.748937  \n      19A     -0.723174    20A     -0.666580    21A     -0.630555  \n      22A     -0.594380    23A     -0.576359    24A     -0.543467  \n      25A     -0.536262    26A     -0.517969    27A     -0.496288  \n      28A     -0.472689    29A     -0.422232    30A     -0.399931  \n      31A     -0.361756    32A     -0.357211    33A     -0.325669  \n      34A     -0.317924    35A     -0.268132  \n\n    Virtual:                                                              \n\n      36A      0.000025    37A      0.009439    38A      0.015832  \n      39A      0.017819    40A      0.027134    41A      0.029786  \n      42A      0.033282    43A      0.045253    44A      0.045834  \n      45A      0.050660    46A      0.052637    47A      0.056941  \n      48A      0.057933    49A      0.059697    50A      0.066829  \n      51A      0.069052    52A      0.073297    53A      0.079006  \n      54A      0.082019    55A      0.084311    56A      0.085309  \n      57A      0.090750    58A      0.091112    59A      0.095141  \n      60A      0.102265    61A      0.104123    62A      0.115893  \n      63A      0.117088    64A      0.121295    65A      0.125342  \n      66A      0.126038    67A      0.130049    68A      0.131964  \n      69A      0.137903    70A      0.139437    71A      0.143263  \n      72A      0.144125    73A      0.145971    74A      0.151758  \n      75A      0.159311    76A      0.163701    77A      0.168785  \n      78A      0.174494    79A      0.178279    80A      0.182854  \n      81A      0.189142    82A      0.192893    83A      0.193448  \n      84A      0.196383    85A      0.201564    86A      0.207488  \n      87A      0.213438    88A      0.217518    89A      0.218467  \n      90A      0.225374    91A      0.229692    92A      0.233424  \n      93A      0.238062    94A      0.241062    95A      0.250291  \n      96A      0.253114    97A      0.254890    98A      0.259156  \n      99A      0.263571   100A      0.264910   101A      0.268869  \n     102A      0.269875   103A      0.274522   104A      0.277516  \n     105A      0.285427   106A      0.291204   107A      0.292126  \n     108A      0.293196   109A      0.296357   110A      0.303978  \n     111A      0.307542   112A      0.310878   113A      0.314682  \n     114A      0.319902   115A      0.322603   116A      0.324875  \n     117A      0.331463   118A      0.335146   119A      0.336516  \n     120A      0.342089   121A      0.346361   122A      0.353778  \n     123A      0.357132   124A      0.358315   125A      0.361491  \n     126A      0.369694   127A      0.370460   128A      0.380442  \n     129A      0.382933   130A      0.392042   131A      0.394601  \n     132A      0.399654   133A      0.402059   134A      0.403822  \n     135A      0.408505   136A      0.412409   137A      0.417617  \n     138A      0.421999   139A      0.425980   140A      0.430780  \n     141A      0.434241   142A      0.439954   143A      0.445743  \n     144A      0.447038   145A      0.454152   146A      0.458060  \n     147A      0.460518   148A      0.464575   149A      0.466432  \n     150A      0.468088   151A      0.472531   152A      0.476002  \n     153A      0.478315   154A      0.480245   155A      0.484122  \n     156A      0.488151   157A      0.491708   158A      0.493487  \n     159A      0.499368   160A      0.501432   161A      0.506713  \n     162A      0.512790   163A      0.516980   164A      0.517636  \n     165A      0.523250   166A      0.528151   167A      0.532977  \n     168A      0.533497   169A      0.537100   170A      0.542996  \n     171A      0.545176   172A      0.549389   173A      0.551031  \n     174A      0.558674   175A      0.563031   176A      0.567102  \n     177A      0.568307   178A      0.573752   179A      0.575124  \n     180A      0.582704   181A      0.583965   182A      0.587159  \n     183A      0.595562   184A      0.596449   185A      0.599502  \n     186A      0.601684   187A      0.610476   188A      0.614798  \n     189A      0.619940   190A      0.625323   191A      0.635228  \n     192A      0.636780   193A      0.641935   194A      0.653267  \n     195A      0.655343   196A      0.659306   197A      0.662557  \n     198A      0.670540   199A      0.672612   200A      0.678509  \n     201A      0.681498   202A      0.685810   203A      0.694750  \n     204A      0.700266   205A      0.704024   206A      0.707071  \n     207A      0.710710   208A      0.722597   209A      0.728867  \n     210A      0.731894   211A      0.736652   212A      0.746957  \n     213A      0.753480   214A      0.758662   215A      0.766276  \n     216A      0.770232   217A      0.774749   218A      0.787035  \n     219A      0.789334   220A      0.799224   221A      0.805214  \n     222A      0.809435   223A      0.823390   224A      0.826452  \n     225A      0.826899   226A      0.830723   227A      0.837646  \n     228A      0.844208   229A      0.849774   230A      0.857057  \n     231A      0.864308   232A      0.869434   233A      0.873091  \n     234A      0.876379   235A      0.887637   236A      0.895123  \n     237A      0.900483   238A      0.904087   239A      0.908462  \n     240A      0.911675   241A      0.918347   242A      0.924045  \n     243A      0.927799   244A      0.939671   245A      0.942700  \n     246A      0.951407   247A      0.952074   248A      0.964445  \n     249A      0.973218   250A      0.977057   251A      0.983396  \n     252A      0.988232   253A      0.996334   254A      1.001936  \n     255A      1.006353   256A      1.015577   257A      1.024249  \n     258A      1.027643   259A      1.036565   260A      1.040710  \n     261A      1.049088   262A      1.055318   263A      1.057663  \n     264A      1.065398   265A      1.068945   266A      1.073315  \n     267A      1.078000   268A      1.082345   269A      1.084256  \n     270A      1.090636   271A      1.096268   272A      1.101887  \n     273A      1.108540   274A      1.111574   275A      1.112749  \n     276A      1.122029   277A      1.124862   278A      1.133127  \n     279A      1.136533   280A      1.141429   281A      1.152714  \n     282A      1.160638   283A      1.166714   284A      1.168924  \n     285A      1.170149   286A      1.182485   287A      1.190612  \n     288A      1.208156   289A      1.210923   290A      1.219966  \n     291A      1.232259   292A      1.235459   293A      1.241818  \n     294A      1.260006   295A      1.262192   296A      1.275044  \n     297A      1.282034   298A      1.289074   299A      1.317778  \n     300A      1.322291   301A      1.338378   302A      1.367108  \n     303A      1.384517   304A      1.391591   305A      1.399669  \n     306A      1.401053   307A      1.420663   308A      1.422872  \n     309A      1.440162   310A      1.447468   311A      1.468077  \n     312A      1.487380   313A      1.541766   314A      1.592229  \n     315A      1.611096   316A      1.617984   317A      1.624779  \n     318A      1.662736   319A      1.671336   320A      1.696526  \n     321A      1.701109   322A      1.714834   323A      1.721264  \n     324A      1.740974   325A      1.766722   326A      1.786036  \n     327A      1.803846   328A      1.808339   329A      1.816758  \n     330A      1.828948   331A      1.841927   332A      1.852135  \n     333A      1.861013   334A      1.871094   335A      1.877163  \n     336A      1.890107   337A      1.908431   338A      1.909799  \n     339A      1.939727   340A      1.955844   341A      1.964509  \n     342A      1.993923   343A      2.006312   344A      2.018571  \n     345A      2.024354   346A      2.040772   347A      2.059823  \n     348A      2.073379   349A      2.094900   350A      2.108754  \n     351A      2.124637   352A      2.133009   353A      2.157089  \n     354A      2.163308   355A      2.178911   356A      2.183572  \n     357A      2.193192   358A      2.217365   359A      2.227696  \n     360A      2.236636   361A      2.242200   362A      2.251665  \n     363A      2.261731   364A      2.273594   365A      2.284347  \n     366A      2.301549   367A      2.340329   368A      2.350644  \n     369A      2.367867   370A      2.390456   371A      2.403901  \n     372A      2.422127   373A      2.429657   374A      2.473570  \n     375A      2.494864   376A      2.516761   377A      2.531070  \n     378A      2.553966   379A      2.560574   380A      2.576369  \n     381A      2.583727   382A      2.615260   383A      2.639685  \n     384A      2.653019   385A      2.682661   386A      2.691084  \n     387A      2.698279   388A      2.740305   389A      2.764510  \n     390A      2.816623   391A      2.875530   392A      2.893521  \n     393A      2.938162   394A      2.978091   395A      3.039546  \n     396A      3.142517   397A      3.190387   398A      3.245806  \n     399A      3.270973   400A      3.295731   401A      3.313087  \n     402A      3.324840   403A      3.356216   404A      3.385920  \n     405A      3.399606   406A      3.419659   407A      3.431482  \n     408A      3.476945   409A      3.503868   410A      3.507443  \n     411A      3.565610   412A      3.584280   413A      3.600882  \n     414A      3.616907   415A      3.631696   416A      3.642797  \n     417A      3.662467   418A      3.676749   419A      3.687227  \n     420A      3.703201   421A      3.729710   422A      3.755262  \n     423A      3.794512   424A      3.848121   425A      3.867306  \n     426A      3.883164   427A      3.895680   428A      3.904887  \n     429A      3.921516   430A      3.943414   431A      3.945540  \n     432A      3.979831   433A      4.043386   434A      4.049659  \n     435A      4.064943   436A      4.080732   437A      4.103197  \n     438A      4.110697   439A      4.130849   440A      4.150892  \n     441A      4.195668   442A      4.214776   443A      4.247715  \n     444A      4.277459   445A      4.304321   446A      4.337470  \n     447A      4.359495   448A      4.376691   449A      4.390916  \n     450A      4.404916   451A      4.416923   452A      4.463224  \n     453A      4.494654   454A      4.508934   455A      4.528389  \n     456A      4.537742   457A      4.548798   458A      4.567833  \n     459A      4.583880   460A      4.594468   461A      4.605307  \n     462A      4.609330   463A      4.628983   464A      4.653600  \n     465A      4.667332   466A      4.681527   467A      4.693242  \n     468A      4.701788   469A      4.714120   470A      4.724400  \n     471A      4.729973   472A      4.735234   473A      4.740811  \n     474A      4.777498   475A      4.791526   476A      4.803479  \n     477A      4.807846   478A      4.850462   479A      4.883381  \n     480A      4.895030   481A      4.925677   482A      4.931587  \n     483A      4.936940   484A      4.958663   485A      4.986026  \n     486A      5.038903   487A      5.042167   488A      5.048229  \n     489A      5.061228   490A      5.086213   491A      5.094572  \n     492A      5.142737   493A      5.153078   494A      5.167275  \n     495A      5.202444   496A      5.223803   497A      5.246471  \n     498A      5.261233   499A      5.289655   500A      5.301619  \n     501A      5.308304   502A      5.320983   503A      5.349184  \n     504A      5.370937   505A      5.379737   506A      5.400170  \n     507A      5.427020   508A      5.454150   509A      5.459828  \n     510A      5.490894   511A      5.493403   512A      5.506138  \n     513A      5.528759   514A      5.556544   515A      5.563748  \n     516A      5.592423   517A      5.612777   518A      5.644588  \n     519A      5.648588   520A      5.652629   521A      5.672423  \n     522A      5.686748   523A      5.730868   524A      5.743195  \n     525A      5.759554   526A      5.778029   527A      5.796339  \n     528A      5.822415   529A      5.832401   530A      5.836337  \n     531A      5.852331   532A      5.865440   533A      5.913224  \n     534A      5.917167   535A      5.941493   536A      5.976075  \n     537A      5.985664   538A      6.026208   539A      6.029487  \n     540A      6.069696   541A      6.093241   542A      6.149553  \n     543A      6.155586   544A      6.167686   545A      6.191563  \n     546A      6.220590   547A      6.249122   548A      6.306827  \n     549A      6.348252   550A      6.392129   551A      6.416548  \n     552A      6.422227   553A      6.527864   554A      6.583410  \n     555A      6.607580   556A      6.648745   557A      6.680678  \n     558A      6.695843   559A      6.744133   560A      6.817554  \n     561A      6.864934   562A      6.966285   563A      7.002394  \n     564A      7.103030   565A      7.184502   566A      7.272149  \n     567A      7.424137   568A      8.282469   569A      9.078523  \n     570A      9.445040   571A     11.330020   572A     11.583424  \n     573A     12.850974   574A     15.416018  \n\n    Final Occupation by Irrep:\n              A \n    DOCC [    35 ]\n\n  @DF-RKS Final Energy:  -466.56112376141755\n\n   => Energetics <=\n\n    Nuclear Repulsion Energy =            501.2235939031376688\n    One-Electron Energy =               -1626.2258603370705714\n    Two-Electron Energy =                 688.9193149617074141\n    DFT Exchange-Correlation Energy =     -30.4655294591920871\n    Empirical Dispersion Energy =          -0.0126428300000000\n    VV10 Nonlocal Energy =                  0.0000000000000000\n    Total Energy =                       -466.5611237614175479\n\nComputation Completed\n\n\nProperties will be evaluated at   0.000000,   0.000000,   0.000000 [a0]\n\nProperties computed using the SCF density matrix\n\n  Nuclear Dipole Moment: [e a0]\n     X:    -0.8453      Y:    -1.3883      Z:    -0.6829\n\n  Electronic Dipole Moment: [e a0]\n     X:     1.4959      Y:     0.6578      Z:     0.3114\n\n  Dipole Moment: [e a0]\n     X:     0.6506      Y:    -0.7305      Z:    -0.3715     Total:     1.0463\n\n  Dipole Moment: [D]\n     X:     1.6536      Y:    -1.8566      Z:    -0.9441     Total:     2.6595\n\n\n*** tstop() called on z098 at Mon May 17 19:10:22 2021\nModule time:\n\tuser time   =     380.64 seconds =       6.34 minutes\n\tsystem time =      21.81 seconds =       0.36 minutes\n\ttotal time  =         27 seconds =       0.45 minutes\nTotal time:\n\tuser time   =     380.64 seconds =       6.34 minutes\n\tsystem time =      21.81 seconds =       0.36 minutes\n\ttotal time  =         27 seconds =       0.45 minutes\n\n*** tstart() called on z098\n*** at Mon May 17 19:10:22 2021\n\n   => Loading Basis Set <=\n\n    Name: (AUG-PCSEG-2 AUX)\n    Role: RIFIT\n    Keyword: DF_BASIS_MP2\n    atoms 1-5   entry C          line   223 file /group/f97/kraus/miniconda3/envs/psi4-1.4a2.dev923/share/psi4/basis/def2-tzvppd-ri.gbs \n    atoms 6-10  entry N          line   278 file /group/f97/kraus/miniconda3/envs/psi4-1.4a2.dev923/share/psi4/basis/def2-tzvppd-ri.gbs \n    atoms 11-15 entry H          line    22 file /group/f97/kraus/miniconda3/envs/psi4-1.4a2.dev923/share/psi4/basis/def2-tzvppd-ri.gbs \n\n\t --------------------------------------------------------\n\t                          DF-MP2                         \n\t      2nd-Order Density-Fitted Moller-Plesset Theory     \n\t              RMP2 Wavefunction,  24 Threads             \n\t                                                         \n\t        Rob Parrish, Justin Turney, Andy Simmonett,      \n\t           Ed Hohenstein, and C. David Sherrill          \n\t --------------------------------------------------------\n\n   => Auxiliary Basis Set <=\n\n  Basis Set: (AUG-PCSEG-2 AUX)\n    Blend: DEF2-TZVPPD-RI\n    Number of shells: 325\n    Number of basis function: 1115\n    Number of Cartesian functions: 1375\n    Spherical Harmonics?: true\n    Max angular momentum: 4\n\n\t --------------------------------------------------------\n\t                 NBF =   575, NAUX =  1115\n\t --------------------------------------------------------\n\t   CLASS    FOCC     OCC    AOCC    AVIR     VIR    FVIR\n\t   PAIRS      10      35      25     539     539       0\n\t --------------------------------------------------------\n\n\t-----------------------------------------------------------\n\t ==================> DF-MP2 Energies <==================== \n\t-----------------------------------------------------------\n\t Reference Energy          =    -466.5611237614175479 [Eh]\n\t Singles Energy            =      -0.0000000000000000 [Eh]\n\t Same-Spin Energy          =      -0.5852275518705610 [Eh]\n\t Opposite-Spin Energy      =      -1.5759332565483906 [Eh]\n\t Correlation Energy        =      -2.1611608084189515 [Eh]\n\t Total Energy              =    -468.7222845698365177 [Eh]\n\t-----------------------------------------------------------\n\t ================> DF-SCS-MP2 Energies <================== \n\t-----------------------------------------------------------\n\t SCS Same-Spin Scale       =       0.3333333333333333 [-]\n\t SCS Opposite-Spin Scale   =       1.2000000000000000 [-]\n\t SCS Same-Spin Energy      =      -0.1950758506235203 [Eh]\n\t SCS Opposite-Spin Energy  =      -1.8911199078580685 [Eh]\n\t SCS Correlation Energy    =      -2.0861957584815887 [Eh]\n\t SCS Total Energy          =    -468.6473195198991561 [Eh]\n\t-----------------------------------------------------------\n\n\n\n    B2PLYP-D3BJ Energy Summary\n    --------------------------\n    DFT Reference Energy                  =  -466.5611237614175479\n    Scaled MP2 Correlation                =    -0.5835134182731170\n    @Final double-hybrid DFT total energy =  -467.1446371796906760\n\n\n*** tstop() called on z098 at Mon May 17 19:10:28 2021\nModule time:\n\tuser time   =      72.25 seconds =       1.20 minutes\n\tsystem time =       4.04 seconds =       0.07 minutes\n\ttotal time  =          6 seconds =       0.10 minutes\nTotal time:\n\tuser time   =     452.91 seconds =       7.55 minutes\n\tsystem time =      25.85 seconds =       0.43 minutes\n\ttotal time  =         33 seconds =       0.55 minutes\n\n    Psi4 stopped on: Monday, 17 May 2021 07:10PM\n    Psi4 wall time for execution: 0:00:32.98\n\n*** Psi4 exiting successfully. Buy a developer a beer!\n",
 "stderr": null,
 "success": true,
 "error": null,
 "tag": "b2plyp-d3bj aug-pcseg-2 c3a_a"
}