{
 "id": null,
 "schema_name": "qcschema_output",
 "schema_version": 1,
 "molecule": {
  "validated": true,
  "symbols": [
   "N",
   "C",
   "N",
   "C",
   "C",
   "O",
   "N",
   "C",
   "N",
   "N",
   "C",
   "H",
   "H",
   "H",
   "H",
   "H"
  ],
  "geometry": [
   1.9795091944628955,
   2.1064834459358144,
   -3.2710258001379717,
   3.442157215567254,
   0.04479224306132246,
   -3.8587306251553546,
   3.037755824719278,
   -1.9205229274148177,
   -2.447105209438357,
   1.1329118902577873,
   -1.157073572729854,
   -0.8011537541645827,
   -0.012262141769655663,
   -2.415631172284768,
   1.2151840216989083,
   0.2787556815508495,
   -4.558580598553946,
   1.9767436502584184,
   -1.7942738780763892,
   -0.8301509530256518,
   2.4756313473792826,
   -2.3895376075956043,
   1.6208238316931525,
   1.8860367962364304,
   -4.060055502500323,
   2.879381431248068,
   3.327897829960767,
   -1.3464087863428829,
   2.818910195233415,
   -0.06605029136148675,
   0.4469413067165973,
   1.3279162822471884,
   -1.2830339161563362,
   1.9190379584482444,
   3.80723695884786,
   -4.140299817848581,
   -2.720239679550724,
   -1.6994249707362516,
   3.9722944387418746,
   4.817877834900553,
   0.1317196448323844,
   -5.370511525521616,
   -4.434221275340973,
   4.678400702683921,
   2.8233409544635233,
   -4.866968558070816,
   2.102703993684897,
   4.9095985969689675
  ],
  "name": "C5H5N5O",
  "molecular_charge": 0.0,
  "molecular_multiplicity": 1,
  "masses": [
   14.00307400443,
   12.0,
   14.00307400443,
   12.0,
   12.0,
   15.99491461957,
   14.00307400443,
   12.0,
   14.00307400443,
   14.00307400443,
   12.0,
   1.00782503223,
   1.00782503223,
   1.00782503223,
   1.00782503223,
   1.00782503223
  ],
  "real": [
   true,
   true,
   true,
   true,
   true,
   true,
   true,
   true,
   true,
   true,
   true,
   true,
   true,
   true,
   true,
   true
  ],
  "atom_labels": [
   "",
   "",
   "",
   "",
   "",
   "",
   "",
   "",
   "",
   "",
   "",
   "",
   "",
   "",
   "",
   ""
  ],
  "atomic_numbers": [
   7,
   6,
   7,
   6,
   6,
   8,
   7,
   6,
   7,
   7,
   6,
   1,
   1,
   1,
   1,
   1
  ],
  "mass_numbers": [
   14,
   12,
   14,
   12,
   12,
   16,
   14,
   12,
   14,
   14,
   12,
   1,
   1,
   1,
   1,
   1
  ],
  "fragments": [
   [
    0,
    1,
    2,
    3,
    4,
    5,
    6,
    7,
    8,
    9,
    10,
    11,
    12,
    13,
    14,
    15
   ]
  ],
  "fragment_charges": [
   0.0
  ],
  "fragment_multiplicities": [
   1
  ],
  "fix_com": false,
  "fix_orientation": false,
  "provenance": {
   "creator": "QCElemental",
   "version": "v0.19.0",
   "routine": "qcelemental.molparse.from_string"
  }
 },
 "driver": "energy",
 "model": {
  "method": "b3lyp-d3bj",
  "basis": "def2-tzvpd"
 },
 "keywords": {
  "guess": "SAP",
  "freeze_core": "true",
  "dft_vv10_postscf": "true"
 },
 "protocols": {},
 "extras": {
  "qcvars": {
   "2-BODY DISPERSION CORRECTION ENERGY": -0.02954534,
   "B3LYP-D3(BJ) DISPERSION CORRECTION ENERGY": -0.02954534,
   "CURRENT DIPOLE X": -3.183150619283038,
   "CURRENT DIPOLE Y": 6.140302184080101,
   "CURRENT DIPOLE Z": 0.834233128712997,
   "CURRENT ENERGY": -542.7995876000258,
   "CURRENT REFERENCE ENERGY": -542.7995876000258,
   "DFT FUNCTIONAL TOTAL ENERGY": -542.7700422600259,
   "DFT TOTAL ENERGY": -542.7995876000259,
   "DFT VV10 ENERGY": 0.0,
   "DFT XC ENERGY": -58.481223711305056,
   "DISPERSION CORRECTION ENERGY": -0.02954534,
   "NUCLEAR REPULSION ENERGY": 594.6969861901529,
   "ONE-ELECTRON ENERGY": -1916.702437020082,
   "PCM POLARIZATION ENERGY": 0.0,
   "PE ENERGY": 0.0,
   "SCF DIPOLE X": -3.183150619283038,
   "SCF DIPOLE Y": 6.140302184080101,
   "SCF DIPOLE Z": 0.834233128712997,
   "SCF ITERATION ENERGY": -542.7995876000258,
   "SCF ITERATIONS": 12.0,
   "SCF TOTAL ENERGY": -542.7995876000258,
   "TWO-ELECTRON ENERGY": 837.7166322812081,
   "XC GRID RADIAL POINTS": 75.0,
   "XC GRID SPHERICAL POINTS": 302.0,
   "XC GRID TOTAL POINTS": 338285.0,
   "CURRENT DIPOLE": [
    -1.2523478165612492,
    2.4157807634597592,
    0.32821256742230354
   ],
   "SCF DIPOLE": [
    -1.2523478165612492,
    2.4157807634597592,
    0.32821256742230354
   ]
  }
 },
 "provenance": {
  "creator": "Psi4",
  "version": "1.4a2.dev923",
  "routine": "psi4.schema_runner.run_qcschema",
  "nthreads": 32,
  "username": "ubuntu",
  "wall_time": 34.54108190536499,
  "memory": 200.0,
  "cpu": "AMD EPYC Processor (with IBPB)",
  "hostname": "bignimbus",
  "qcengine_version": "v0.17.0"
 },
 "properties": {
  "calcinfo_nbasis": 455,
  "calcinfo_nmo": 455,
  "calcinfo_nalpha": 39,
  "calcinfo_nbeta": 39,
  "calcinfo_natom": 16,
  "nuclear_repulsion_energy": 594.6969861901529,
  "return_energy": -542.7995876000258,
  "scf_one_electron_energy": -1916.702437020082,
  "scf_two_electron_energy": 837.7166322812081,
  "scf_xc_energy": -58.481223711305056,
  "scf_dispersion_correction_energy": -0.02954534,
  "scf_dipole_moment": [
   -1.2523478165612492,
   2.4157807634597592,
   0.32821256742230354
  ],
  "scf_total_energy": -542.7995876000258,
  "scf_iterations": 12
 },
 "wavefunction": null,
 "return_result": -542.7995876000258,
 "stdout": "\n    -----------------------------------------------------------------------\n          Psi4: An Open-Source Ab Initio Electronic Structure Package\n                               Psi4 1.4a2.dev923 \n\n                         Git: Rev {master} 5de566e \n\n\n    D. G. A. Smith, L. A. Burns, A. C. Simmonett, R. M. Parrish,\n    M. C. Schieber, R. Galvelis, P. Kraus, H. Kruse, R. Di Remigio,\n    A. Alenaizan, A. M. James, S. Lehtola, J. P. Misiewicz, M. Scheurer,\n    R. A. Shaw, J. B. Schriber, Y. Xie, Z. L. Glick, D. A. Sirianni,\n    J. S. O'Brien, J. M. Waldrop, A. Kumar, E. G. Hohenstein,\n    B. P. Pritchard, B. R. Brooks, H. F. Schaefer III, A. Yu. Sokolov,\n    K. Patkowski, A. E. DePrince III, U. Bozkaya, R. A. King,\n    F. A. Evangelista, J. M. Turney, T. D. Crawford, C. D. Sherrill,\n    J. Chem. Phys. 152(18) 184108 (2020). https://doi.org/10.1063/5.0006002\n\n                            Additional Code Authors\n    E. T. Seidl, C. L. Janssen, E. F. Valeev, M. L. Leininger,\n    J. F. Gonthier, R. M. Richard, H. R. McAlexander, M. Saitow, X. Wang,\n    P. Verma, and M. H. Lechner\n\n             Previous Authors, Complete List of Code Contributors,\n                       and Citations for Specific Modules\n    https://github.com/psi4/psi4/blob/master/codemeta.json\n    https://github.com/psi4/psi4/graphs/contributors\n    http://psicode.org/psi4manual/master/introduction.html#citing-psifour\n\n    -----------------------------------------------------------------------\n\n\n    Psi4 started on: Monday, 17 May 2021 04:59PM\n\n    Process ID: 2544506\n    Host:       bignimbus\n    PSIDATADIR: /home/ubuntu/pk/Applications/miniconda3/envs/psi4-1.4a2.dev923/share/psi4\n    Memory:     186.3 GiB\n    Threads:    32\n    \n  ==> Input QCSchema <==\n\n--------------------------------------------------------------------------\n{'driver': 'energy',\n 'extras': {},\n 'id': None,\n 'keywords': {'dft_vv10_postscf': 'true', 'freeze_core': 'true', 'guess': 'SAP'},\n 'model': {'basis': 'def2-tzvpd', 'method': 'b3lyp-d3bj'},\n 'molecule': {'atom_labels': ['', '', '', '', '', '', '', '', '', '', '', '', '', '', '', ''],\n              'atomic_numbers': [7, 6, 7, 6, 6, 8, 7, 6, 7, 7, 6, 1, 1, 1, 1, 1],\n              'fix_com': False,\n              'fix_orientation': False,\n              'fragment_charges': [0.0],\n              'fragment_multiplicities': [1],\n              'fragments': [[0, 1, 2, 3, 4, 5, 6, 7, 8, 9, 10, 11, 12, 13, 14, 15]],\n              'geometry': [1.9795091944628904, 2.10648344593581, -3.2710258001380055, 3.4421572155672493,\n                           0.044792243061317905, -3.8587306251553883, 3.037755824719273, -1.9205229274148223,\n                           -2.4471052094383907, 1.1329118902577822, -1.1570735727298587, -0.8011537541646163,\n                           -0.012262141769660673, -2.4156311722847725, 1.2151840216988745, 0.2787556815508445,\n                           -4.5585805985539505, 1.9767436502583846, -1.7942738780763943, -0.8301509530256563,\n                           2.475631347379249, -2.389537607595609, 1.6208238316931478, 1.8860367962363966,\n                           -4.060055502500329, 2.8793814312480634, 3.327897829960733, -1.346408786342888,\n                           2.8189101952334106, -0.06605029136152041, 0.4469413067165923, 1.3279162822471837,\n                           -1.28303391615637, 1.9190379584482393, 3.8072369588478554, -4.140299817848614,\n                           -2.720239679550729, -1.6994249707362563, 3.972294438741841, 4.817877834900548,\n                           0.13171964483237986, -5.37051152552165, -4.434221275340978, 4.678400702683916,\n                           2.8233409544634895, -4.8669685580708215, 2.1027039936848926, 4.909598596968934],\n              'mass_numbers': [14, 12, 14, 12, 12, 16, 14, 12, 14, 14, 12, 1, 1, 1, 1, 1],\n              'masses': [14.00307400443, 12.0, 14.00307400443, 12.0, 12.0, 15.99491461957, 14.00307400443, 12.0,\n                         14.00307400443, 14.00307400443, 12.0, 1.00782503223, 1.00782503223, 1.00782503223,\n                         1.00782503223, 1.00782503223],\n              'molecular_charge': 0.0,\n              'molecular_multiplicity': 1,\n              'name': 'C5H5N5O',\n              'provenance': {'creator': 'QCElemental',\n                             'routine': 'qcelemental.molparse.from_string',\n                             'version': 'v0.19.0'},\n              'real': [True, True, True, True, True, True, True, True, True, True, True, True, True, True, True, True],\n              'symbols': ['N', 'C', 'N', 'C', 'C', 'O', 'N', 'C', 'N', 'N', 'C', 'H', 'H', 'H', 'H', 'H'],\n              'validated': True},\n 'protocols': {},\n 'provenance': {'creator': 'QCElemental', 'routine': 'qcelemental.models.results', 'version': 'v0.17.0'},\n 'schema_name': 'qcschema_input',\n 'schema_version': 1}\n--------------------------------------------------------------------------\n\nScratch directory: /home/ubuntu/pk/scratch/tmpi0eoasge_psi_scratch/\n\n*** tstart() called on bignimbus\n*** at Mon May 17 16:59:50 2021\n\n   => Loading Basis Set <=\n\n    Name: DEF2-TZVPD\n    Role: ORBITAL\n    Keyword: BASIS\n    atoms 1, 3, 7, 9-10 entry N          line   171 file /home/ubuntu/pk/Applications/miniconda3/envs/psi4-1.4a2.dev923/share/psi4/basis/def2-tzvpd.gbs \n    atoms 2, 4-5, 8, 11 entry C          line   134 file /home/ubuntu/pk/Applications/miniconda3/envs/psi4-1.4a2.dev923/share/psi4/basis/def2-tzvpd.gbs \n    atoms 6             entry O          line   208 file /home/ubuntu/pk/Applications/miniconda3/envs/psi4-1.4a2.dev923/share/psi4/basis/def2-tzvpd.gbs \n    atoms 12-16         entry H          line    14 file /home/ubuntu/pk/Applications/miniconda3/envs/psi4-1.4a2.dev923/share/psi4/basis/def2-tzvpd.gbs \n\n   => B3LYP-D3(BJ): Empirical Dispersion <=\n\n    Grimme's -D3 (BJ-damping) Dispersion Correction\n    Grimme S.; Ehrlich S.; Goerigk L. (2011), J. Comput. Chem., 32: 1456\n\n        s6 =       1.000000\n        s8 =       1.988900\n        a1 =       0.398100\n        a2 =       4.421100\n\n\n         ---------------------------------------------------------\n                                   SCF\n               by Justin Turney, Rob Parrish, Andy Simmonett\n                          and Daniel G. A. Smith\n                              RKS Reference\n                       32 Threads, 190734 MiB Core\n         ---------------------------------------------------------\n\n  ==> Geometry <==\n\n    Molecular point group: c1\n    Full point group: C1\n\n    Geometry (in Bohr), charge = 0, multiplicity = 1:\n\n       Center              X                  Y                   Z               Mass       \n    ------------   -----------------  -----------------  -----------------  -----------------\n         N            1.979509194463     2.106483445936    -3.271025800138    14.003074004430\n         C            3.442157215567     0.044792243061    -3.858730625155    12.000000000000\n         N            3.037755824719    -1.920522927415    -2.447105209438    14.003074004430\n         C            1.132911890258    -1.157073572730    -0.801153754165    12.000000000000\n         C           -0.012262141770    -2.415631172285     1.215184021699    12.000000000000\n         O            0.278755681551    -4.558580598554     1.976743650258    15.994914619570\n         N           -1.794273878076    -0.830150953026     2.475631347379    14.003074004430\n         C           -2.389537607596     1.620823831693     1.886036796236    12.000000000000\n         N           -4.060055502500     2.879381431248     3.327897829961    14.003074004430\n         N           -1.346408786343     2.818910195233    -0.066050291361    14.003074004430\n         C            0.446941306717     1.327916282247    -1.283033916156    12.000000000000\n         H            1.919037958448     3.807236958848    -4.140299817849     1.007825032230\n         H           -2.720239679551    -1.699424970736     3.972294438742     1.007825032230\n         H            4.817877834901     0.131719644832    -5.370511525522     1.007825032230\n         H           -4.434221275341     4.678400702684     2.823340954464     1.007825032230\n         H           -4.866968558071     2.102703993685     4.909598596969     1.007825032230\n\n  Running in c1 symmetry.\n\n  Rotational constants: A =      0.06486  B =      0.03693  C =      0.02354 [cm^-1]\n  Rotational constants: A =   1944.44089  B =   1107.15421  C =    705.76789 [MHz]\n  Nuclear repulsion =  594.696986190152870\n\n  Charge       = 0\n  Multiplicity = 1\n  Electrons    = 78\n  Nalpha       = 39\n  Nbeta        = 39\n\n  ==> Algorithm <==\n\n  SCF Algorithm Type is DF.\n  DIIS enabled.\n  MOM disabled.\n  Fractional occupation disabled.\n  Guess Type is SAP.\n  Energy threshold   = 1.00e-06\n  Density threshold  = 1.00e-06\n  Integral threshold = 0.00e+00\n\n  ==> Primary Basis <==\n\n  Basis Set: DEF2-TZVPD\n    Blend: DEF2-TZVPD\n    Number of shells: 169\n    Number of basis function: 455\n    Number of Cartesian functions: 521\n    Spherical Harmonics?: true\n    Max angular momentum: 3\n\n  ==> DFT Potential <==\n\n   => Composite Functional: B3LYP-D3BJ <= \n\n    B3LYP-d3bj Hyb-GGA Exchange-Correlation Functional\n\n    P. J. Stephens, F. J. Devlin, C. F. Chabalowski, and M. J. Frisch, J. Phys. Chem. 98, 11623 (1994)\n\n    Deriv               =              1\n    GGA                 =           TRUE\n    Meta                =          FALSE\n\n    Exchange Hybrid     =           TRUE\n    MP2 Hybrid          =          FALSE\n\n   => Exchange Functionals <=\n\n    0.0800   Slater exchange\n    0.7200         Becke 88\n\n   => Exact (HF) Exchange <=\n\n    0.2000               HF \n\n   => Correlation Functionals <=\n\n    0.1900   Vosko, Wilk & Nusair (VWN5_RPA)\n    0.8100   Lee, Yang & Parr\n\n   => LibXC Density Thresholds  <==\n\n    XC_HYB_GGA_XC_B3LYP:  1.00E-32 \n\n   => Molecular Quadrature <=\n\n    Radial Scheme          =       TREUTLER\n    Pruning Scheme         =           NONE\n    Nuclear Scheme         =       TREUTLER\n\n    BS radius alpha        =              1\n    Pruning alpha          =              1\n    Radial Points          =             75\n    Spherical Points       =            302\n    Total Points           =         338285\n    Total Blocks           =           2516\n    Max Points             =            256\n    Max Functions          =            422\n    Weights Tolerance      =       1.00E-15\n\n   => Loading Basis Set <=\n\n    Name: (DEF2-TZVPD AUX)\n    Role: JKFIT\n    Keyword: DF_BASIS_SCF\n    atoms 1, 3, 7, 9-10 entry N          line   258 file /home/ubuntu/pk/Applications/miniconda3/envs/psi4-1.4a2.dev923/share/psi4/basis/def2-universal-jkfit.gbs \n    atoms 2, 4-5, 8, 11 entry C          line   198 file /home/ubuntu/pk/Applications/miniconda3/envs/psi4-1.4a2.dev923/share/psi4/basis/def2-universal-jkfit.gbs \n    atoms 6             entry O          line   318 file /home/ubuntu/pk/Applications/miniconda3/envs/psi4-1.4a2.dev923/share/psi4/basis/def2-universal-jkfit.gbs \n    atoms 12-16         entry H          line    18 file /home/ubuntu/pk/Applications/miniconda3/envs/psi4-1.4a2.dev923/share/psi4/basis/def2-universal-jkfit.gbs \n\n  ==> Integral Setup <==\n\n  DFHelper Memory: AOs need 1.436 GiB; user supplied 136.609 GiB. Using in-core AOs.\n\n  ==> MemDFJK: Density-Fitted J/K Matrices <==\n\n    J tasked:                   Yes\n    K tasked:                   Yes\n    wK tasked:                   No\n    OpenMP threads:              32\n    Memory [MiB]:            139887\n    Algorithm:                 Core\n    Schwarz Cutoff:           1E-12\n    Mask sparsity (%):       6.3712\n    Fitting Condition:        1E-10\n\n   => Auxiliary Basis Set <=\n\n  Basis Set: (DEF2-TZVPD AUX)\n    Blend: DEF2-UNIVERSAL-JKFIT\n    Number of shells: 305\n    Number of basis function: 927\n    Number of Cartesian functions: 1103\n    Spherical Harmonics?: true\n    Max angular momentum: 4\n\n  Cached 100.0% of DFT collocation blocks in 3.089 [GiB].\n\n  Minimum eigenvalue in the overlap matrix is 1.0190272103E-06.\n  Reciprocal condition number of the overlap matrix is 6.3792455086E-08.\n    Using symmetric orthogonalization.\n\n  ==> Pre-Iterations <==\n\n  SCF Guess: Superposition of Atomic Potentials (doi:10.1021/acs.jctc.8b01089).\n\n  ==> SAP guess <==\n\n   => Molecular Quadrature <=\n\n    Radial Scheme          =       TREUTLER\n    Pruning Scheme         =           NONE\n    Nuclear Scheme         =       TREUTLER\n\n    BS radius alpha        =              1\n    Pruning alpha          =              1\n    Radial Points          =             75\n    Spherical Points       =            302\n    Total Points           =         338285\n    Total Blocks           =           2516\n    Max Points             =            256\n    Max Functions          =            422\n    Weights Tolerance      =       1.00E-15\n\n   -------------------------------------------------------\n    Irrep   Nso     Nmo     Nalpha   Nbeta   Ndocc  Nsocc\n   -------------------------------------------------------\n     A        455     455      39      39      39       0\n   -------------------------------------------------------\n    Total     455     455      39      39      39       0\n   -------------------------------------------------------\n\n  ==> Iterations <==\n\n                           Total Energy        Delta E     RMS |[F,P]|\n\n   @DF-RKS iter   1:  -537.98545586335115   -5.37985e+02   7.23650e-03 DIIS\n   @DF-RKS iter   2:  -488.72393132292501    4.92615e+01   1.73375e-02 DIIS\n   @DF-RKS iter   3:  -541.61871081933634   -5.28948e+01   3.52393e-03 DIIS\n   @DF-RKS iter   4:  -539.75597818891401    1.86273e+00   4.78603e-03 DIIS\n   @DF-RKS iter   5:  -542.64236406599571   -2.88639e+00   1.24616e-03 DIIS\n   @DF-RKS iter   6:  -542.73793198976387   -9.55679e-02   8.33965e-04 DIIS\n   @DF-RKS iter   7:  -542.79595703001041   -5.80250e-02   1.89309e-04 DIIS\n   @DF-RKS iter   8:  -542.79817548306482   -2.21845e-03   1.24040e-04 DIIS\n   @DF-RKS iter   9:  -542.79953831268494   -1.36283e-03   2.31074e-05 DIIS\n   @DF-RKS iter  10:  -542.79957661456331   -3.83019e-05   1.11074e-05 DIIS\n   @DF-RKS iter  11:  -542.79958715528267   -1.05407e-05   2.24291e-06 DIIS\n   @DF-RKS iter  12:  -542.79958760002580   -4.44743e-07   8.60075e-07 DIIS\n  Energy and wave function converged.\n\n\n  ==> Post-Iterations <==\n\n    Orbital Energies [Eh]\n    ---------------------\n\n    Doubly Occupied:                                                      \n\n       1A    -19.090338     2A    -14.384020     3A    -14.380362  \n       4A    -14.370992     5A    -14.322183     6A    -14.310773  \n       7A    -10.314915     8A    -10.278651     9A    -10.256826  \n      10A    -10.240704    11A    -10.193822    12A     -1.055551  \n      13A     -1.028649    14A     -1.012953    15A     -0.926025  \n      16A     -0.905257    17A     -0.881846    18A     -0.771580  \n      19A     -0.681530    20A     -0.667226    21A     -0.629805  \n      22A     -0.610065    23A     -0.559267    24A     -0.553514  \n      25A     -0.531447    26A     -0.499059    27A     -0.483915  \n      28A     -0.464769    29A     -0.439398    30A     -0.436529  \n      31A     -0.421168    32A     -0.401079    33A     -0.325821  \n      34A     -0.320600    35A     -0.297473    36A     -0.292965  \n      37A     -0.277906    38A     -0.266855    39A     -0.219848  \n\n    Virtual:                                                              \n\n      40A     -0.024372    41A     -0.021244    42A     -0.012103  \n      43A     -0.000628    44A      0.018337    45A      0.026442  \n      46A      0.028809    47A      0.040429    48A      0.053513  \n      49A      0.064363    50A      0.073471    51A      0.077508  \n      52A      0.094228    53A      0.105452    54A      0.106324  \n      55A      0.109733    56A      0.111199    57A      0.127720  \n      58A      0.136004    59A      0.144375    60A      0.148746  \n      61A      0.156976    62A      0.162319    63A      0.167163  \n      64A      0.169512    65A      0.174818    66A      0.188384  \n      67A      0.192397    68A      0.197182    69A      0.197429  \n      70A      0.202966    71A      0.208038    72A      0.213437  \n      73A      0.220986    74A      0.226430    75A      0.233110  \n      76A      0.236421    77A      0.240131    78A      0.244006  \n      79A      0.247799    80A      0.254545    81A      0.267523  \n      82A      0.268991    83A      0.275506    84A      0.285267  \n      85A      0.286591    86A      0.290412    87A      0.292164  \n      88A      0.312839    89A      0.316224    90A      0.319228  \n      91A      0.322576    92A      0.336798    93A      0.338323  \n      94A      0.340141    95A      0.344602    96A      0.359322  \n      97A      0.363189    98A      0.367318    99A      0.375735  \n     100A      0.381814   101A      0.385894   102A      0.398437  \n     103A      0.401315   104A      0.405390   105A      0.410480  \n     106A      0.421377   107A      0.426306   108A      0.436430  \n     109A      0.440277   110A      0.448784   111A      0.458349  \n     112A      0.461022   113A      0.474768   114A      0.475115  \n     115A      0.479157   116A      0.486406   117A      0.490072  \n     118A      0.495543   119A      0.501602   120A      0.505164  \n     121A      0.507970   122A      0.518395   123A      0.530923  \n     124A      0.534190   125A      0.544836   126A      0.549735  \n     127A      0.554420   128A      0.558957   129A      0.574755  \n     130A      0.578644   131A      0.581604   132A      0.585956  \n     133A      0.590059   134A      0.592150   135A      0.605895  \n     136A      0.617399   137A      0.619783   138A      0.622313  \n     139A      0.631090   140A      0.636365   141A      0.640565  \n     142A      0.646375   143A      0.652426   144A      0.655152  \n     145A      0.662991   146A      0.666721   147A      0.674002  \n     148A      0.678309   149A      0.690977   150A      0.694641  \n     151A      0.701059   152A      0.712756   153A      0.719173  \n     154A      0.734678   155A      0.739867   156A      0.745241  \n     157A      0.754786   158A      0.766195   159A      0.769649  \n     160A      0.773465   161A      0.782018   162A      0.792137  \n     163A      0.796138   164A      0.808863   165A      0.828312  \n     166A      0.834448   167A      0.835500   168A      0.844069  \n     169A      0.862397   170A      0.874209   171A      0.884189  \n     172A      0.891180   173A      0.904957   174A      0.910924  \n     175A      0.926926   176A      0.932387   177A      0.945581  \n     178A      0.959691   179A      0.966556   180A      0.968885  \n     181A      0.971653   182A      0.980529   183A      0.992526  \n     184A      1.007289   185A      1.014752   186A      1.034767  \n     187A      1.050323   188A      1.053779   189A      1.076575  \n     190A      1.087328   191A      1.090433   192A      1.098780  \n     193A      1.103194   194A      1.115008   195A      1.124893  \n     196A      1.127878   197A      1.130959   198A      1.136473  \n     199A      1.166376   200A      1.170742   201A      1.193989  \n     202A      1.228598   203A      1.253533   204A      1.280244  \n     205A      1.295219   206A      1.305894   207A      1.310362  \n     208A      1.338549   209A      1.342629   210A      1.368785  \n     211A      1.384395   212A      1.393138   213A      1.409036  \n     214A      1.420934   215A      1.441923   216A      1.481939  \n     217A      1.489686   218A      1.521311   219A      1.530410  \n     220A      1.546963   221A      1.564344   222A      1.582114  \n     223A      1.601969   224A      1.609209   225A      1.623536  \n     226A      1.633724   227A      1.647958   228A      1.691871  \n     229A      1.725257   230A      1.746223   231A      1.748920  \n     232A      1.755640   233A      1.766062   234A      1.782929  \n     235A      1.788718   236A      1.810525   237A      1.832479  \n     238A      1.836765   239A      1.845933   240A      1.860746  \n     241A      1.879656   242A      1.890812   243A      1.896336  \n     244A      1.906304   245A      1.909224   246A      1.929327  \n     247A      1.958367   248A      1.983777   249A      1.998641  \n     250A      2.016733   251A      2.029616   252A      2.043229  \n     253A      2.077507   254A      2.120729   255A      2.141518  \n     256A      2.149043   257A      2.151297   258A      2.167617  \n     259A      2.192333   260A      2.214526   261A      2.246221  \n     262A      2.252465   263A      2.262872   264A      2.281647  \n     265A      2.301935   266A      2.314108   267A      2.323873  \n     268A      2.350086   269A      2.353266   270A      2.370839  \n     271A      2.403516   272A      2.413840   273A      2.434582  \n     274A      2.445419   275A      2.472562   276A      2.492982  \n     277A      2.498611   278A      2.529590   279A      2.537467  \n     280A      2.585490   281A      2.591325   282A      2.603375  \n     283A      2.619798   284A      2.635416   285A      2.664181  \n     286A      2.680393   287A      2.734073   288A      2.749266  \n     289A      2.754411   290A      2.781775   291A      2.784611  \n     292A      2.832514   293A      2.858132   294A      2.891516  \n     295A      2.938582   296A      2.944721   297A      2.949936  \n     298A      2.956391   299A      2.979401   300A      2.987831  \n     301A      3.010714   302A      3.025775   303A      3.038134  \n     304A      3.047369   305A      3.050407   306A      3.067930  \n     307A      3.073069   308A      3.085286   309A      3.105492  \n     310A      3.111136   311A      3.128934   312A      3.150858  \n     313A      3.178951   314A      3.179591   315A      3.196526  \n     316A      3.214682   317A      3.235554   318A      3.243239  \n     319A      3.251807   320A      3.264452   321A      3.292038  \n     322A      3.302966   323A      3.317824   324A      3.331346  \n     325A      3.337991   326A      3.364439   327A      3.374010  \n     328A      3.383508   329A      3.402493   330A      3.414088  \n     331A      3.439915   332A      3.443130   333A      3.460039  \n     334A      3.499560   335A      3.504046   336A      3.525044  \n     337A      3.534088   338A      3.547126   339A      3.555847  \n     340A      3.576747   341A      3.599370   342A      3.638217  \n     343A      3.646239   344A      3.650687   345A      3.698581  \n     346A      3.741309   347A      3.774953   348A      3.796355  \n     349A      3.819194   350A      3.884469   351A      3.934577  \n     352A      3.943531   353A      3.984641   354A      4.009540  \n     355A      4.032059   356A      4.061504   357A      4.087654  \n     358A      4.099009   359A      4.117925   360A      4.140444  \n     361A      4.183245   362A      4.213095   363A      4.217455  \n     364A      4.272799   365A      4.275336   366A      4.313332  \n     367A      4.331638   368A      4.367563   369A      4.378901  \n     370A      4.422904   371A      4.512946   372A      4.552392  \n     373A      4.604673   374A      4.624917   375A      4.656359  \n     376A      4.687579   377A      4.726093   378A      4.740125  \n     379A      4.763697   380A      4.779914   381A      4.783100  \n     382A      4.809933   383A      4.815586   384A      4.883242  \n     385A      4.903088   386A      4.924132   387A      4.947481  \n     388A      4.966331   389A      4.984460   390A      5.012887  \n     391A      5.030980   392A      5.051091   393A      5.062009  \n     394A      5.072073   395A      5.101624   396A      5.120928  \n     397A      5.125313   398A      5.134412   399A      5.156141  \n     400A      5.196230   401A      5.201454   402A      5.214321  \n     403A      5.220339   404A      5.231697   405A      5.267054  \n     406A      5.303454   407A      5.340248   408A      5.352470  \n     409A      5.367482   410A      5.397904   411A      5.411044  \n     412A      5.445625   413A      5.458348   414A      5.470723  \n     415A      5.487154   416A      5.522894   417A      5.547833  \n     418A      5.562805   419A      5.584513   420A      5.619648  \n     421A      5.650211   422A      5.685813   423A      5.688695  \n     424A      5.705033   425A      5.718533   426A      5.786006  \n     427A      5.790002   428A      5.855034   429A      5.957684  \n     430A      5.995725   431A      6.062114   432A      6.112258  \n     433A      6.166478   434A      6.245581   435A      6.257044  \n     436A      6.335214   437A      6.421898   438A      6.545381  \n     439A      6.582755   440A      6.763822   441A      6.914557  \n     442A      7.010455   443A      7.229860   444A      7.315909  \n     445A     22.933598   446A     23.170555   447A     23.349121  \n     448A     23.434643   449A     23.697368   450A     32.332181  \n     451A     32.556061   452A     32.649443   453A     32.730273  \n     454A     32.984199   455A     44.391630  \n\n    Final Occupation by Irrep:\n              A \n    DOCC [    39 ]\n\n  @DF-RKS Final Energy:  -542.79958760002580\n\n   => Energetics <=\n\n    Nuclear Repulsion Energy =            594.6969861901528702\n    One-Electron Energy =               -1916.7024370200820158\n    Two-Electron Energy =                 837.7166322812081489\n    DFT Exchange-Correlation Energy =     -58.4812237113050557\n    Empirical Dispersion Energy =          -0.0295453400000000\n    VV10 Nonlocal Energy =                  0.0000000000000000\n    Total Energy =                       -542.7995876000259159\n\nComputation Completed\n\n\nProperties will be evaluated at   0.000000,   0.000000,   0.000000 [a0]\n\nProperties computed using the SCF density matrix\n\n  Nuclear Dipole Moment: [e a0]\n     X:    -2.6175      Y:     4.4557      Z:     1.0936\n\n  Electronic Dipole Moment: [e a0]\n     X:     1.3652      Y:    -2.0399      Z:    -0.7654\n\n  Dipole Moment: [e a0]\n     X:    -1.2523      Y:     2.4158      Z:     0.3282     Total:     2.7408\n\n  Dipole Moment: [D]\n     X:    -3.1832      Y:     6.1403      Z:     0.8342     Total:     6.9665\n\n\n*** tstop() called on bignimbus at Mon May 17 17:00:17 2021\nModule time:\n\tuser time   =     675.96 seconds =      11.27 minutes\n\tsystem time =      18.62 seconds =       0.31 minutes\n\ttotal time  =         27 seconds =       0.45 minutes\nTotal time:\n\tuser time   =     675.96 seconds =      11.27 minutes\n\tsystem time =      18.62 seconds =       0.31 minutes\n\ttotal time  =         27 seconds =       0.45 minutes\n\n    Psi4 stopped on: Monday, 17 May 2021 05:00PM\n    Psi4 wall time for execution: 0:00:27.24\n\n*** Psi4 exiting successfully. Buy a developer a beer!\n",
 "stderr": null,
 "success": true,
 "error": null,
 "tag": "b3lyp-d3bj def2-tzvpd ggg_a"
}