{
 "id": null,
 "schema_name": "qcschema_output",
 "schema_version": 1,
 "molecule": {
  "validated": true,
  "symbols": [
   "C",
   "C",
   "C",
   "C",
   "C",
   "C",
   "C",
   "C",
   "C",
   "C",
   "C",
   "N",
   "N",
   "O",
   "O",
   "H",
   "H",
   "H",
   "H",
   "H",
   "H",
   "H",
   "H",
   "H",
   "H",
   "H",
   "H",
   "H",
   "H"
  ],
  "geometry": [
   3.5554869353951855,
   -3.23644091877854,
   0.8987056250420546,
   1.9118674021602333,
   -2.1200908793427033,
   -0.8500015780296057,
   -0.0895377578599026,
   -3.5708411847611807,
   -1.8005413780393948,
   -0.4747640977128567,
   -6.044851730949312,
   -0.9774258106692284,
   1.1492816523146046,
   -7.1168631263035325,
   0.8023390412743362,
   3.1792594713516618,
   -5.710740593063869,
   1.7242154754131813,
   2.245761221541251,
   0.606135743631911,
   -1.6208019673426013,
   0.5894710746351033,
   2.4603425768356337,
   -0.03477939668547637,
   1.1230805995851318,
   5.183783743501322,
   -0.9055878720099462,
   -3.646733649982087,
   0.9813503144721908,
   1.3272709438562589,
   -6.402859519713694,
   0.7233157709454254,
   0.5788449118686887,
   2.9003529027692156,
   6.4266093730618,
   0.4517494915748972,
   -2.1008904362044465,
   2.0184924833594606,
   -0.4250720922807827,
   -2.8823526603172738,
   0.225894501297913,
   3.416123180331954,
   0.03665248361979522,
   6.059902349238332,
   -2.7759424149557046,
   -6.847648137314955,
   -1.289714984198526,
   0.40530569258952154,
   3.2907967764545596,
   8.236747793019846,
   -0.030142008773602413,
   -7.5839118919590796,
   1.5008927181443117,
   2.0856010304673585,
   -6.862550517540313,
   1.6648434670629062,
   -1.2028077764742098,
   -2.8259896888993694,
   2.8377152149111846,
   -2.004539203008694,
   0.9944960751044792,
   2.2142076387208767,
   1.9726955636496297,
   1.765243552085961,
   0.8727024006151176,
   -3.618098862765987,
   4.218451993085055,
   1.1801306056091,
   -1.3713845749479217,
   -1.3569543934909605,
   -2.743813884311314,
   -3.1906276953784207,
   5.141386673854155,
   -2.150908532996669,
   1.6280132978183732,
   -2.0421180639765826,
   -7.138797177441721,
   -1.729223114064617,
   4.456661419829641,
   -6.532635397356992,
   3.1048512723987964,
   0.8413810157892601,
   -9.03585732999245,
   1.4615057494520332,
   3.4748976750489122,
   5.761297275524113,
   2.171277433543366
  ],
  "name": "C11H14N2O2",
  "molecular_charge": 0.0,
  "molecular_multiplicity": 1,
  "masses": [
   12.0,
   12.0,
   12.0,
   12.0,
   12.0,
   12.0,
   12.0,
   12.0,
   12.0,
   12.0,
   12.0,
   14.00307400443,
   14.00307400443,
   15.99491461957,
   15.99491461957,
   1.00782503223,
   1.00782503223,
   1.00782503223,
   1.00782503223,
   1.00782503223,
   1.00782503223,
   1.00782503223,
   1.00782503223,
   1.00782503223,
   1.00782503223,
   1.00782503223,
   1.00782503223,
   1.00782503223,
   1.00782503223
  ],
  "real": [
   true,
   true,
   true,
   true,
   true,
   true,
   true,
   true,
   true,
   true,
   true,
   true,
   true,
   true,
   true,
   true,
   true,
   true,
   true,
   true,
   true,
   true,
   true,
   true,
   true,
   true,
   true,
   true,
   true
  ],
  "atom_labels": [
   "",
   "",
   "",
   "",
   "",
   "",
   "",
   "",
   "",
   "",
   "",
   "",
   "",
   "",
   "",
   "",
   "",
   "",
   "",
   "",
   "",
   "",
   "",
   "",
   "",
   "",
   "",
   "",
   ""
  ],
  "atomic_numbers": [
   6,
   6,
   6,
   6,
   6,
   6,
   6,
   6,
   6,
   6,
   6,
   7,
   7,
   8,
   8,
   1,
   1,
   1,
   1,
   1,
   1,
   1,
   1,
   1,
   1,
   1,
   1,
   1,
   1
  ],
  "mass_numbers": [
   12,
   12,
   12,
   12,
   12,
   12,
   12,
   12,
   12,
   12,
   12,
   14,
   14,
   16,
   16,
   1,
   1,
   1,
   1,
   1,
   1,
   1,
   1,
   1,
   1,
   1,
   1,
   1,
   1
  ],
  "fragments": [
   [
    0,
    1,
    2,
    3,
    4,
    5,
    6,
    7,
    8,
    9,
    10,
    11,
    12,
    13,
    14,
    15,
    16,
    17,
    18,
    19,
    20,
    21,
    22,
    23,
    24,
    25,
    26,
    27,
    28
   ]
  ],
  "fragment_charges": [
   0.0
  ],
  "fragment_multiplicities": [
   1
  ],
  "fix_com": false,
  "fix_orientation": false,
  "provenance": {
   "creator": "QCElemental",
   "version": "v0.19.0",
   "routine": "qcelemental.molparse.from_string"
  }
 },
 "driver": "energy",
 "model": {
  "method": "dsd-blyp-d3bj",
  "basis": "pcseg-1"
 },
 "keywords": {},
 "protocols": {},
 "extras": {
  "qcvars": {
   "2-BODY DISPERSION CORRECTION ENERGY": -0.03028743,
   "CURRENT DIPOLE X": 1.5092124777300875,
   "CURRENT DIPOLE Y": 1.0221806154531794,
   "CURRENT DIPOLE Z": -0.03910150062224054,
   "CURRENT ENERGY": -686.421693960706,
   "CURRENT REFERENCE ENERGY": -685.2971127959556,
   "DFT FUNCTIONAL TOTAL ENERGY": -685.2668253659555,
   "DFT TOTAL ENERGY": -686.421693960706,
   "DFT VV10 ENERGY": 0.0,
   "DFT XC ENERGY": -28.674425140608577,
   "DISPERSION CORRECTION ENERGY": -0.03028743,
   "DOUBLE-HYBRID CORRECTION ENERGY": -1.124581164750298,
   "DSD-BLYP-D3BJ DISPERSION CORRECTION ENERGY": -0.03028743,
   "DSD-BLYP-D3BJ DOUBLE-HYBRID CORRECTION ENERGY": -1.124581164750298,
   "DSD-BLYP-D3BJ TOTAL ENERGY": -686.421693960706,
   "NUCLEAR REPULSION ENERGY": 980.0399976067333,
   "ONE-ELECTRON ENERGY": -2877.2911838507275,
   "PCM POLARIZATION ENERGY": 0.0,
   "PE ENERGY": 0.0,
   "SCF DIPOLE X": 1.5092124777300875,
   "SCF DIPOLE Y": 1.0221806154531794,
   "SCF DIPOLE Z": -0.03910150062224054,
   "SCF ITERATION ENERGY": -685.2971127959556,
   "SCF ITERATIONS": 9.0,
   "SCF TOTAL ENERGY": -685.2971127959556,
   "TWO-ELECTRON ENERGY": 1240.6587860186473,
   "XC GRID RADIAL POINTS": 75.0,
   "XC GRID SPHERICAL POINTS": 302.0,
   "XC GRID TOTAL POINTS": 601554.0,
   "CURRENT DIPOLE": [
    0.5937698768517521,
    0.40215679840571106,
    -0.015383714057351394
   ],
   "SCF DIPOLE": [
    0.5937698768517521,
    0.40215679840571106,
    -0.015383714057351394
   ]
  }
 },
 "provenance": {
  "creator": "Psi4",
  "version": "1.4a2.dev923",
  "routine": "psi4.schema_runner.run_qcschema",
  "memory": 100.0,
  "cpu": "AMD EPYC Processor (with IBPB)",
  "hostname": "bignimbus",
  "nthreads": 16,
  "username": "ubuntu",
  "qcengine_version": "v0.17.0",
  "wall_time": 22.341864585876465
 },
 "properties": {
  "calcinfo_nbasis": 280,
  "calcinfo_nmo": 280,
  "calcinfo_nalpha": 55,
  "calcinfo_nbeta": 55,
  "calcinfo_natom": 29,
  "nuclear_repulsion_energy": 980.0399976067333,
  "return_energy": -686.421693960706,
  "scf_one_electron_energy": -2877.2911838507275,
  "scf_two_electron_energy": 1240.6587860186473,
  "scf_xc_energy": -28.674425140608577,
  "scf_dispersion_correction_energy": -0.03028743,
  "scf_dipole_moment": [
   0.5937698768517521,
   0.40215679840571106,
   -0.015383714057351394
  ],
  "scf_total_energy": -685.2971127959556,
  "scf_iterations": 9
 },
 "wavefunction": null,
 "return_result": -686.421693960706,
 "stdout": "\n    -----------------------------------------------------------------------\n          Psi4: An Open-Source Ab Initio Electronic Structure Package\n                               Psi4 1.4a2.dev923 \n\n                         Git: Rev {master} 5de566e \n\n\n    D. G. A. Smith, L. A. Burns, A. C. Simmonett, R. M. Parrish,\n    M. C. Schieber, R. Galvelis, P. Kraus, H. Kruse, R. Di Remigio,\n    A. Alenaizan, A. M. James, S. Lehtola, J. P. Misiewicz, M. Scheurer,\n    R. A. Shaw, J. B. Schriber, Y. Xie, Z. L. Glick, D. A. Sirianni,\n    J. S. O'Brien, J. M. Waldrop, A. Kumar, E. G. Hohenstein,\n    B. P. Pritchard, B. R. Brooks, H. F. Schaefer III, A. Yu. Sokolov,\n    K. Patkowski, A. E. DePrince III, U. Bozkaya, R. A. King,\n    F. A. Evangelista, J. M. Turney, T. D. Crawford, C. D. Sherrill,\n    J. Chem. Phys. 152(18) 184108 (2020). https://doi.org/10.1063/5.0006002\n\n                            Additional Code Authors\n    E. T. Seidl, C. L. Janssen, E. F. Valeev, M. L. Leininger,\n    J. F. Gonthier, R. M. Richard, H. R. McAlexander, M. Saitow, X. Wang,\n    P. Verma, and M. H. Lechner\n\n             Previous Authors, Complete List of Code Contributors,\n                       and Citations for Specific Modules\n    https://github.com/psi4/psi4/blob/master/codemeta.json\n    https://github.com/psi4/psi4/graphs/contributors\n    http://psicode.org/psi4manual/master/introduction.html#citing-psifour\n\n    -----------------------------------------------------------------------\n\n\n    Psi4 started on: Thursday, 13 May 2021 03:13AM\n\n    Process ID: 2191473\n    Host:       bignimbus\n    PSIDATADIR: /home/ubuntu/pk/Applications/miniconda3/envs/psi4-1.4a2.dev923/share/psi4\n    Memory:     93.1 GiB\n    Threads:    16\n    \n  ==> Input QCSchema <==\n\n--------------------------------------------------------------------------\n{'driver': 'energy',\n 'extras': {},\n 'id': None,\n 'keywords': {},\n 'model': {'basis': 'pcseg-1', 'method': 'dsd-blyp-d3bj'},\n 'molecule': {'atom_labels': ['', '', '', '', '', '', '', '', '', '', '', '', '', '', '', '', '', '', '', '', '', '',\n                              '', '', '', '', '', '', ''],\n              'atomic_numbers': [6, 6, 6, 6, 6, 6, 6, 6, 6, 6, 6, 7, 7, 8, 8, 1, 1, 1, 1, 1, 1, 1, 1, 1, 1, 1, 1, 1, 1],\n              'fix_com': False,\n              'fix_orientation': False,\n              'fragment_charges': [0.0],\n              'fragment_multiplicities': [1],\n              'fragments': [[0, 1, 2, 3, 4, 5, 6, 7, 8, 9, 10, 11, 12, 13, 14, 15, 16, 17, 18, 19, 20, 21, 22, 23, 24,\n                             25, 26, 27, 28]],\n              'geometry': [3.5554869353951926, -3.236440918778536, 0.8987056250420729, 1.9118674021602402,\n                           -2.1200908793426994, -0.8500015780295875, -0.0895377578598957, -3.5708411847611767,\n                           -1.8005413780393766, -0.47476409771284983, -6.044851730949308, -0.9774258106692102,\n                           1.1492816523146114, -7.116863126303528, 0.8023390412743544, 3.179259471351669,\n                           -5.710740593063864, 1.7242154754131995, 2.245761221541258, 0.6061357436319152,\n                           -1.620801967342583, 0.5894710746351102, 2.4603425768356377, -0.03477939668545815,\n                           1.1230805995851387, 5.183783743501326, -0.905587872009928, -3.64673364998208,\n                           0.981350314472195, 1.327270943856277, -6.402859519713687, 0.7233157709454296,\n                           0.5788449118687069, 2.9003529027692228, 6.426609373061805, 0.4517494915749154,\n                           -2.1008904362044394, 2.0184924833594646, -0.4250720922807645, -2.8823526603172667,\n                           0.22589450129791722, 3.4161231803319723, 0.03665248361980211, 6.059902349238336,\n                           -2.7759424149556864, -6.847648137314948, -1.2897149841985218, 0.40530569258953975,\n                           3.2907967764545667, 8.23674779301985, -0.030142008773584198, -7.5839118919590724,\n                           1.500892718144316, 2.0856010304673767, -6.862550517540306, 1.6648434670629104,\n                           -1.2028077764741916, -2.8259896888993623, 2.8377152149111886, -2.004539203008676,\n                           0.9944960751044861, 2.2142076387208807, 1.972695563649648, 1.765243552085968,\n                           0.8727024006151218, -3.6180988627659687, 4.218451993085062, 1.1801306056091043,\n                           -1.3713845749479034, -1.3569543934909536, -2.74381388431131, -3.1906276953784025,\n                           5.1413866738541625, -2.150908532996665, 1.6280132978183914, -2.0421180639765755,\n                           -7.138797177441717, -1.7292231140645988, 4.456661419829648, -6.532635397356987,\n                           3.1048512723988146, 0.8413810157892669, -9.035857329992446, 1.4615057494520514,\n                           3.4748976750489193, 5.761297275524117, 2.171277433543384],\n              'mass_numbers': [12, 12, 12, 12, 12, 12, 12, 12, 12, 12, 12, 14, 14, 16, 16, 1, 1, 1, 1, 1, 1, 1, 1, 1, 1,\n                               1, 1, 1, 1],\n              'masses': [12.0, 12.0, 12.0, 12.0, 12.0, 12.0, 12.0, 12.0, 12.0, 12.0, 12.0, 14.00307400443,\n                         14.00307400443, 15.99491461957, 15.99491461957, 1.00782503223, 1.00782503223, 1.00782503223,\n                         1.00782503223, 1.00782503223, 1.00782503223, 1.00782503223, 1.00782503223, 1.00782503223,\n                         1.00782503223, 1.00782503223, 1.00782503223, 1.00782503223, 1.00782503223],\n              'molecular_charge': 0.0,\n              'molecular_multiplicity': 1,\n              'name': 'C11H14N2O2',\n              'provenance': {'creator': 'QCElemental',\n                             'routine': 'qcelemental.molparse.from_string',\n                             'version': 'v0.19.0'},\n              'real': [True, True, True, True, True, True, True, True, True, True, True, True, True, True, True, True,\n                       True, True, True, True, True, True, True, True, True, True, True, True, True],\n              'symbols': ['C', 'C', 'C', 'C', 'C', 'C', 'C', 'C', 'C', 'C', 'C', 'N', 'N', 'O', 'O', 'H', 'H', 'H', 'H',\n                          'H', 'H', 'H', 'H', 'H', 'H', 'H', 'H', 'H', 'H'],\n              'validated': True},\n 'protocols': {},\n 'provenance': {'creator': 'QCElemental', 'routine': 'qcelemental.models.results', 'version': 'v0.17.0'},\n 'schema_name': 'qcschema_input',\n 'schema_version': 1}\n--------------------------------------------------------------------------\n\nScratch directory: /home/ubuntu/pk/scratch/tmpotwkmyy5_psi_scratch/\n\n*** tstart() called on bignimbus\n*** at Thu May 13 03:13:31 2021\n\n   => Loading Basis Set <=\n\n    Name: PCSEG-1\n    Role: ORBITAL\n    Keyword: BASIS\n    atoms 1-11  entry C          line    90 file /home/ubuntu/pk/Applications/miniconda3/envs/psi4-1.4a2.dev923/share/psi4/basis/pcseg-1.gbs \n    atoms 12-13 entry N          line   111 file /home/ubuntu/pk/Applications/miniconda3/envs/psi4-1.4a2.dev923/share/psi4/basis/pcseg-1.gbs \n    atoms 14-15 entry O          line   132 file /home/ubuntu/pk/Applications/miniconda3/envs/psi4-1.4a2.dev923/share/psi4/basis/pcseg-1.gbs \n    atoms 16-29 entry H          line    13 file /home/ubuntu/pk/Applications/miniconda3/envs/psi4-1.4a2.dev923/share/psi4/basis/pcseg-1.gbs \n\n   => DSD-BLYP-D3BJ: Empirical Dispersion <=\n\n    Grimme's -D3 (BJ-damping) Dispersion Correction\n    Grimme S.; Ehrlich S.; Goerigk L. (2011), J. Comput. Chem., 32: 1456\n    Parametrisation from:    S. Kozuch, J.M.L. Martin, J. Comp. Chem., 34, 2327-2344, 2013\n\n        s6 =       0.570000\n        s8 =       0.000000\n        a1 =       0.000000\n        a2 =       5.400000\n\n\n         ---------------------------------------------------------\n                                   SCF\n               by Justin Turney, Rob Parrish, Andy Simmonett\n                          and Daniel G. A. Smith\n                              RKS Reference\n                       16 Threads,  95367 MiB Core\n         ---------------------------------------------------------\n\n  ==> Geometry <==\n\n    Molecular point group: c1\n    Full point group: C1\n\n    Geometry (in Bohr), charge = 0, multiplicity = 1:\n\n       Center              X                  Y                   Z               Mass       \n    ------------   -----------------  -----------------  -----------------  -----------------\n         C            3.555486935395    -3.236440918779     0.898705625042    12.000000000000\n         C            1.911867402160    -2.120090879343    -0.850001578030    12.000000000000\n         C           -0.089537757860    -3.570841184761    -1.800541378039    12.000000000000\n         C           -0.474764097713    -6.044851730949    -0.977425810669    12.000000000000\n         C            1.149281652315    -7.116863126304     0.802339041274    12.000000000000\n         C            3.179259471352    -5.710740593064     1.724215475413    12.000000000000\n         C            2.245761221541     0.606135743632    -1.620801967343    12.000000000000\n         C            0.589471074635     2.460342576836    -0.034779396685    12.000000000000\n         C            1.123080599585     5.183783743501    -0.905587872010    12.000000000000\n         C           -3.646733649982     0.981350314472     1.327270943856    12.000000000000\n         C           -6.402859519714     0.723315770945     0.578844911869    12.000000000000\n         N            2.900352902769     6.426609373062     0.451749491575    14.003074004430\n         N           -2.100890436204     2.018492483359    -0.425072092281    14.003074004430\n         O           -2.882352660317     0.225894501298     3.416123180332    15.994914619570\n         O            0.036652483620     6.059902349238    -2.775942414956    15.994914619570\n         H           -6.847648137315    -1.289714984199     0.405305692590     1.007825032230\n         H            3.290796776455     8.236747793020    -0.030142008774     1.007825032230\n         H           -7.583911891959     1.500892718144     2.085601030467     1.007825032230\n         H           -6.862550517540     1.664843467063    -1.202807776474     1.007825032230\n         H           -2.825989688899     2.837715214911    -2.004539203009     1.007825032230\n         H            0.994496075104     2.214207638721     1.972695563650     1.007825032230\n         H            1.765243552086     0.872702400615    -3.618098862766     1.007825032230\n         H            4.218451993085     1.180130605609    -1.371384574948     1.007825032230\n         H           -1.356954393491    -2.743813884311    -3.190627695378     1.007825032230\n         H            5.141386673854    -2.150908532997     1.628013297818     1.007825032230\n         H           -2.042118063977    -7.138797177442    -1.729223114065     1.007825032230\n         H            4.456661419830    -6.532635397357     3.104851272399     1.007825032230\n         H            0.841381015789    -9.035857329992     1.461505749452     1.007825032230\n         H            3.474897675049     5.761297275524     2.171277433543     1.007825032230\n\n  Running in c1 symmetry.\n\n  Rotational constants: A =      0.02825  B =      0.01408  C =      0.01109 [cm^-1]\n  Rotational constants: A =    846.77580  B =    422.03348  C =    332.43779 [MHz]\n  Nuclear repulsion =  980.039997606733323\n\n  Charge       = 0\n  Multiplicity = 1\n  Electrons    = 110\n  Nalpha       = 55\n  Nbeta        = 55\n\n  ==> Algorithm <==\n\n  SCF Algorithm Type is DF.\n  DIIS enabled.\n  MOM disabled.\n  Fractional occupation disabled.\n  Guess Type is SAD.\n  Energy threshold   = 1.00e-06\n  Density threshold  = 1.00e-06\n  Integral threshold = 0.00e+00\n\n  ==> Primary Basis <==\n\n  Basis Set: PCSEG-1\n    Blend: PCSEG-1\n    Number of shells: 132\n    Number of basis function: 280\n    Number of Cartesian functions: 295\n    Spherical Harmonics?: true\n    Max angular momentum: 2\n\n  ==> DFT Potential <==\n\n   => Composite Functional: DSD-BLYP-D3BJ <= \n\n    DSD-BLYP-D3BJ Dispersion-corrected SCS Double Hybrid XC Functional\n\n    S. Kozuch, J.M.L. Martin, J. Comp. Chem., 34, 2327-2344, 2013\n\n\n    Deriv               =              1\n    GGA                 =           TRUE\n    Meta                =          FALSE\n\n    Exchange Hybrid     =           TRUE\n    MP2 Hybrid          =           TRUE\n\n   => Exchange Functionals <=\n\n    0.2900     XC_GGA_X_B88\n\n   => Exact (HF) Exchange <=\n\n    0.7100               HF \n\n   => Correlation Functionals <=\n\n    0.5400     XC_GGA_C_LYP\n\n   => MP2 Correlation <=\n\n    MP2 SCS Hybrid      =           TRUE\n    MP2 OS Alpha        =       0.470000\n    MP2 SS Alpha        =       0.400000\n\n   => LibXC Density Thresholds  <==\n\n    XC_GGA_C_LYP:  1.00E-32 \n    XC_GGA_X_B88:  1.00E-25 \n\n   => Molecular Quadrature <=\n\n    Radial Scheme          =       TREUTLER\n    Pruning Scheme         =           NONE\n    Nuclear Scheme         =       TREUTLER\n\n    BS radius alpha        =              1\n    Pruning alpha          =              1\n    Radial Points          =             75\n    Spherical Points       =            302\n    Total Points           =         601554\n    Total Blocks           =           4328\n    Max Points             =            256\n    Max Functions          =            229\n    Weights Tolerance      =       1.00E-15\n\n   => Loading Basis Set <=\n\n    Name: (PCSEG-1 AUX)\n    Role: JKFIT\n    Keyword: DF_BASIS_SCF\n    atoms 1-11  entry C          line   198 file /home/ubuntu/pk/Applications/miniconda3/envs/psi4-1.4a2.dev923/share/psi4/basis/def2-universal-jkfit.gbs \n    atoms 12-13 entry N          line   258 file /home/ubuntu/pk/Applications/miniconda3/envs/psi4-1.4a2.dev923/share/psi4/basis/def2-universal-jkfit.gbs \n    atoms 14-15 entry O          line   318 file /home/ubuntu/pk/Applications/miniconda3/envs/psi4-1.4a2.dev923/share/psi4/basis/def2-universal-jkfit.gbs \n    atoms 16-29 entry H          line    18 file /home/ubuntu/pk/Applications/miniconda3/envs/psi4-1.4a2.dev923/share/psi4/basis/def2-universal-jkfit.gbs \n\n  ==> Integral Setup <==\n\n  DFHelper Memory: AOs need 0.697 GiB; user supplied 67.243 GiB. Using in-core AOs.\n\n  ==> MemDFJK: Density-Fitted J/K Matrices <==\n\n    J tasked:                   Yes\n    K tasked:                   Yes\n    wK tasked:                   No\n    OpenMP threads:              16\n    Memory [MiB]:             68856\n    Algorithm:                 Core\n    Schwarz Cutoff:           1E-12\n    Mask sparsity (%):      18.7041\n    Fitting Condition:        1E-10\n\n   => Auxiliary Basis Set <=\n\n  Basis Set: (PCSEG-1 AUX)\n    Blend: DEF2-UNIVERSAL-JKFIT\n    Number of shells: 459\n    Number of basis function: 1385\n    Number of Cartesian functions: 1631\n    Spherical Harmonics?: true\n    Max angular momentum: 4\n\n  Cached 100.0% of DFT collocation blocks in 2.607 [GiB].\n\n  Minimum eigenvalue in the overlap matrix is 4.1586254587E-04.\n  Reciprocal condition number of the overlap matrix is 6.2588571238E-05.\n    Using symmetric orthogonalization.\n\n  ==> Pre-Iterations <==\n\n  SCF Guess: Superposition of Atomic Densities via on-the-fly atomic UHF (no occupation information).\n\n   -------------------------\n    Irrep   Nso     Nmo    \n   -------------------------\n     A        280     280 \n   -------------------------\n    Total     280     280\n   -------------------------\n\n  ==> Iterations <==\n\n                           Total Energy        Delta E     RMS |[F,P]|\n\n   @DF-RKS iter SAD:  -684.26427131260959   -6.84264e+02   0.00000e+00 \n   @DF-RKS iter   1:  -684.78754978477116   -5.23278e-01   3.56433e-03 DIIS\n   @DF-RKS iter   2:  -685.04379488479117   -2.56245e-01   2.81581e-03 DIIS\n   @DF-RKS iter   3:  -685.28777162974427   -2.43977e-01   5.12547e-04 DIIS\n   @DF-RKS iter   4:  -685.29578758552839   -8.01596e-03   1.81434e-04 DIIS\n   @DF-RKS iter   5:  -685.29704282908494   -1.25524e-03   3.60966e-05 DIIS\n   @DF-RKS iter   6:  -685.29710178632467   -5.89572e-05   1.31930e-05 DIIS\n   @DF-RKS iter   7:  -685.29711113097346   -9.34465e-06   4.50021e-06 DIIS\n   @DF-RKS iter   8:  -685.29711247268665   -1.34171e-06   2.41723e-06 DIIS\n   @DF-RKS iter   9:  -685.29711279595563   -3.23269e-07   7.50752e-07 DIIS\n  Energy and wave function converged.\n\n\n  ==> Post-Iterations <==\n\n    Orbital Energies [Eh]\n    ---------------------\n\n    Doubly Occupied:                                                      \n\n       1A    -20.017658     2A    -19.987217     3A    -15.158779  \n       4A    -15.138617     5A    -10.987441     6A    -10.966320  \n       7A    -10.913707     8A    -10.869740     9A    -10.865187  \n      10A    -10.856919    11A    -10.856833    12A    -10.856762  \n      13A    -10.855913    14A    -10.855275    15A    -10.854367  \n      16A     -1.279899    17A     -1.248868    18A     -1.134921  \n      19A     -1.129214    20A     -1.057431    21A     -0.982685  \n      22A     -0.931463    23A     -0.925567    24A     -0.893423  \n      25A     -0.827667    26A     -0.757420    27A     -0.752351  \n      28A     -0.731106    29A     -0.723777    30A     -0.689429  \n      31A     -0.643466    32A     -0.626084    33A     -0.605858  \n      34A     -0.595937    35A     -0.584944    36A     -0.574480  \n      37A     -0.568121    38A     -0.551051    39A     -0.539350  \n      40A     -0.534234    41A     -0.519061    42A     -0.514007  \n      43A     -0.508893    44A     -0.493876    45A     -0.480912  \n      46A     -0.458553    47A     -0.446855    48A     -0.444911  \n      49A     -0.442807    50A     -0.390619    51A     -0.387018  \n      52A     -0.360875    53A     -0.347745    54A     -0.311988  \n      55A     -0.304252  \n\n    Virtual:                                                              \n\n      56A      0.066827    57A      0.071391    58A      0.087008  \n      59A      0.102790    60A      0.110284    61A      0.121305  \n      62A      0.126140    63A      0.137899    64A      0.144345  \n      65A      0.153462    66A      0.162630    67A      0.175646  \n      68A      0.180771    69A      0.201735    70A      0.208611  \n      71A      0.213897    72A      0.220380    73A      0.221172  \n      74A      0.258134    75A      0.271795    76A      0.289547  \n      77A      0.295148    78A      0.329615    79A      0.339962  \n      80A      0.358208    81A      0.371428    82A      0.376508  \n      83A      0.388519    84A      0.391509    85A      0.412395  \n      86A      0.448320    87A      0.462612    88A      0.494294  \n      89A      0.512139    90A      0.525881    91A      0.539237  \n      92A      0.544515    93A      0.555722    94A      0.568255  \n      95A      0.576829    96A      0.584478    97A      0.595627  \n      98A      0.606636    99A      0.617681   100A      0.621782  \n     101A      0.624789   102A      0.643723   103A      0.645082  \n     104A      0.651384   105A      0.652358   106A      0.657385  \n     107A      0.672673   108A      0.683706   109A      0.707616  \n     110A      0.730269   111A      0.737217   112A      0.744482  \n     113A      0.748315   114A      0.756695   115A      0.764471  \n     116A      0.765728   117A      0.780565   118A      0.780713  \n     119A      0.785774   120A      0.792617   121A      0.800938  \n     122A      0.807573   123A      0.813904   124A      0.819229  \n     125A      0.827674   126A      0.832997   127A      0.839203  \n     128A      0.852807   129A      0.862485   130A      0.864123  \n     131A      0.889339   132A      0.908546   133A      0.914755  \n     134A      0.936506   135A      0.982387   136A      0.994112  \n     137A      1.015732   138A      1.033040   139A      1.046152  \n     140A      1.056160   141A      1.102116   142A      1.111723  \n     143A      1.118515   144A      1.156948   145A      1.159060  \n     146A      1.164089   147A      1.199942   148A      1.211627  \n     149A      1.216528   150A      1.265063   151A      1.276227  \n     152A      1.306276   153A      1.315839   154A      1.332653  \n     155A      1.391663   156A      1.399856   157A      1.412703  \n     158A      1.422872   159A      1.456532   160A      1.464111  \n     161A      1.511828   162A      1.534219   163A      1.537610  \n     164A      1.557767   165A      1.566959   166A      1.580363  \n     167A      1.613356   168A      1.637835   169A      1.653792  \n     170A      1.664183   171A      1.669262   172A      1.697057  \n     173A      1.742088   174A      1.754993   175A      1.819988  \n     176A      1.880754   177A      1.887311   178A      1.895505  \n     179A      1.910461   180A      1.921775   181A      1.951416  \n     182A      1.970689   183A      1.975619   184A      2.005041  \n     185A      2.009979   186A      2.030764   187A      2.036114  \n     188A      2.045219   189A      2.047938   190A      2.060371  \n     191A      2.063943   192A      2.066493   193A      2.083178  \n     194A      2.099519   195A      2.103194   196A      2.107156  \n     197A      2.131205   198A      2.146445   199A      2.150131  \n     200A      2.156232   201A      2.176204   202A      2.188133  \n     203A      2.228621   204A      2.247132   205A      2.254984  \n     206A      2.279535   207A      2.286044   208A      2.315577  \n     209A      2.318724   210A      2.346544   211A      2.363137  \n     212A      2.372526   213A      2.396200   214A      2.404263  \n     215A      2.413702   216A      2.420951   217A      2.424412  \n     218A      2.447930   219A      2.462214   220A      2.466039  \n     221A      2.474951   222A      2.481773   223A      2.498418  \n     224A      2.508481   225A      2.512358   226A      2.515430  \n     227A      2.529691   228A      2.540076   229A      2.561112  \n     230A      2.582507   231A      2.590622   232A      2.601801  \n     233A      2.603665   234A      2.660675   235A      2.666545  \n     236A      2.687461   237A      2.688505   238A      2.708347  \n     239A      2.731344   240A      2.765355   241A      2.779377  \n     242A      2.802039   243A      2.817938   244A      2.835871  \n     245A      2.840298   246A      2.858160   247A      2.883121  \n     248A      2.909165   249A      2.926368   250A      2.953295  \n     251A      2.973994   252A      2.985202   253A      3.008737  \n     254A      3.049459   255A      3.060214   256A      3.098250  \n     257A      3.111180   258A      3.197799   259A      3.202724  \n     260A      3.225777   261A      3.230933   262A      3.281461  \n     263A      3.288240   264A      3.305064   265A      3.315245  \n     266A      3.328128   267A      3.339124   268A      3.399069  \n     269A      3.434062   270A      3.449324   271A      3.469909  \n     272A      3.490207   273A      3.518985   274A      3.550040  \n     275A      3.578636   276A      3.600046   277A      3.651494  \n     278A      3.743837   279A      3.772409   280A      4.040065  \n\n    Final Occupation by Irrep:\n              A \n    DOCC [    55 ]\n\n  @DF-RKS Final Energy:  -685.29711279595563\n\n   => Energetics <=\n\n    Nuclear Repulsion Energy =            980.0399976067333228\n    One-Electron Energy =               -2877.2911838507275206\n    Two-Electron Energy =                1240.6587860186473335\n    DFT Exchange-Correlation Energy =     -28.6744251406085766\n    Empirical Dispersion Energy =          -0.0302874300000000\n    VV10 Nonlocal Energy =                  0.0000000000000000\n    Total Energy =                       -685.2971127959555133\n\nComputation Completed\n\n\nProperties will be evaluated at   0.000000,   0.000000,   0.000000 [a0]\n\nProperties computed using the SCF density matrix\n\n  Nuclear Dipole Moment: [e a0]\n     X:    -1.6633      Y:    -2.2905      Z:    -0.1560\n\n  Electronic Dipole Moment: [e a0]\n     X:     2.2571      Y:     2.6927      Z:     0.1406\n\n  Dipole Moment: [e a0]\n     X:     0.5938      Y:     0.4022      Z:    -0.0154     Total:     0.7173\n\n  Dipole Moment: [D]\n     X:     1.5092      Y:     1.0222      Z:    -0.0391     Total:     1.8232\n\n\n*** tstop() called on bignimbus at Thu May 13 03:13:46 2021\nModule time:\n\tuser time   =     162.17 seconds =       2.70 minutes\n\tsystem time =       7.83 seconds =       0.13 minutes\n\ttotal time  =         15 seconds =       0.25 minutes\nTotal time:\n\tuser time   =     162.17 seconds =       2.70 minutes\n\tsystem time =       7.83 seconds =       0.13 minutes\n\ttotal time  =         15 seconds =       0.25 minutes\n\n*** tstart() called on bignimbus\n*** at Thu May 13 03:13:46 2021\n\n   => Loading Basis Set <=\n\n    Name: (PCSEG-1 AUX)\n    Role: RIFIT\n    Keyword: DF_BASIS_MP2\n    atoms 1-11  entry C          line   153 file /home/ubuntu/pk/Applications/miniconda3/envs/psi4-1.4a2.dev923/share/psi4/basis/def2-svp-ri.gbs \n    atoms 12-13 entry N          line   193 file /home/ubuntu/pk/Applications/miniconda3/envs/psi4-1.4a2.dev923/share/psi4/basis/def2-svp-ri.gbs \n    atoms 14-15 entry O          line   233 file /home/ubuntu/pk/Applications/miniconda3/envs/psi4-1.4a2.dev923/share/psi4/basis/def2-svp-ri.gbs \n    atoms 16-29 entry H          line    22 file /home/ubuntu/pk/Applications/miniconda3/envs/psi4-1.4a2.dev923/share/psi4/basis/def2-svp-ri.gbs \n\n\t --------------------------------------------------------\n\t                          DF-MP2                         \n\t      2nd-Order Density-Fitted Moller-Plesset Theory     \n\t              RMP2 Wavefunction,  16 Threads             \n\t                                                         \n\t        Rob Parrish, Justin Turney, Andy Simmonett,      \n\t           Ed Hohenstein, and C. David Sherrill          \n\t --------------------------------------------------------\n\n   => Auxiliary Basis Set <=\n\n  Basis Set: (PCSEG-1 AUX)\n    Blend: DEF2-SVP-RI\n    Number of shells: 324\n    Number of basis function: 916\n    Number of Cartesian functions: 1035\n    Spherical Harmonics?: true\n    Max angular momentum: 3\n\n\t --------------------------------------------------------\n\t                 NBF =   280, NAUX =   916\n\t --------------------------------------------------------\n\t   CLASS    FOCC     OCC    AOCC    AVIR     VIR    FVIR\n\t   PAIRS       0      55      55     225     225       0\n\t --------------------------------------------------------\n\n\t-----------------------------------------------------------\n\t ==================> DF-MP2 Energies <==================== \n\t-----------------------------------------------------------\n\t Reference Energy          =    -685.2971127959556270 [Eh]\n\t Singles Energy            =      -0.0000000000000000 [Eh]\n\t Same-Spin Energy          =      -0.6617174974521955 [Eh]\n\t Opposite-Spin Energy      =      -1.8295620548285527 [Eh]\n\t Correlation Energy        =      -2.4912795522807483 [Eh]\n\t Total Energy              =    -687.7883923482363571 [Eh]\n\t-----------------------------------------------------------\n\t ================> DF-SCS-MP2 Energies <================== \n\t-----------------------------------------------------------\n\t SCS Same-Spin Scale       =       0.4000000000000000 [-]\n\t SCS Opposite-Spin Scale   =       0.4700000000000000 [-]\n\t SCS Same-Spin Energy      =      -0.2646869989808782 [Eh]\n\t SCS Opposite-Spin Energy  =      -0.8598941657694197 [Eh]\n\t SCS Correlation Energy    =      -2.4160469649449947 [Eh]\n\t SCS Total Energy          =    -687.7131597609005667 [Eh]\n\t-----------------------------------------------------------\n\n\n\n    DSD-BLYP-D3BJ Energy Summary\n    ----------------------------\n    DFT Reference Energy                  =  -685.2971127959556270\n    Scaled MP2 Correlation                =    -1.1245811647502979\n    @Final double-hybrid DFT total energy =  -686.4216939607059658\n\n\n*** tstop() called on bignimbus at Thu May 13 03:13:49 2021\nModule time:\n\tuser time   =      44.49 seconds =       0.74 minutes\n\tsystem time =       0.93 seconds =       0.02 minutes\n\ttotal time  =          3 seconds =       0.05 minutes\nTotal time:\n\tuser time   =     206.68 seconds =       3.44 minutes\n\tsystem time =       8.76 seconds =       0.15 minutes\n\ttotal time  =         18 seconds =       0.30 minutes\n\n    Psi4 stopped on: Thursday, 13 May 2021 03:13AM\n    Psi4 wall time for execution: 0:00:17.71\n\n*** Psi4 exiting successfully. Buy a developer a beer!\n",
 "stderr": null,
 "success": true,
 "error": null,
 "tag": "dsd-blyp-d3bj pcseg-1 phe_a"
}