{
 "id": null,
 "schema_name": "qcschema_output",
 "schema_version": 1,
 "molecule": {
  "validated": true,
  "symbols": [
   "C",
   "C",
   "C",
   "C",
   "C",
   "N",
   "N",
   "N",
   "N",
   "N",
   "O",
   "H",
   "H",
   "H",
   "H",
   "H",
   "C",
   "C",
   "C",
   "C",
   "N",
   "N",
   "N",
   "O",
   "H",
   "H",
   "H",
   "H",
   "H"
  ],
  "geometry": [
   -2.811399463448751,
   1.6087221422380076,
   0.0,
   -2.303939968622808,
   -2.999758629094373,
   0.0,
   -6.165332634064441,
   -1.4453303895287786,
   0.0,
   -5.448476366728766,
   1.0486621207099458,
   0.0,
   -9.426070181350926,
   1.1020468837541295,
   0.0,
   -1.376405694464342,
   -0.6015261005370985,
   0.0,
   -4.709153145487523,
   -3.5278312564968113,
   0.0,
   -7.541965991116336,
   2.6074650762559752,
   0.0,
   -8.722424989358327,
   -1.4035561037994078,
   0.0,
   -0.5990441760437587,
   -4.861318386652253,
   0.0,
   -1.7596421527071895,
   3.640532995616759,
   0.0,
   0.510644578799838,
   -0.3459652085085584,
   0.0,
   -11.374954183166212,
   1.6486539449950572,
   0.0,
   -9.84039074463143,
   -2.909732076477562,
   0.0,
   -1.2545901689650794,
   -6.615955550305602,
   0.0,
   1.2657318953796497,
   -4.546049707963747,
   0.0,
   5.7738001793097045,
   -1.6318879320862265,
   0.0,
   9.399285104427557,
   1.1014761864642413,
   0.0,
   7.930160991891255,
   3.1563076835033197,
   0.0,
   5.232531594373196,
   2.717335642916219,
   0.0,
   8.366770874821535,
   -1.237776099991369,
   0.0,
   4.270156439639664,
   0.42708395489372997,
   0.0,
   3.6640116670900613,
   4.663711978163021,
   0.0,
   5.000592278912879,
   -3.783157822485794,
   0.0,
   9.43399937335222,
   -2.784679450125391,
   0.0,
   11.426339517148532,
   1.1945281906079102,
   0.0,
   8.702735834036055,
   5.027762047054095,
   0.0,
   4.318966175734114,
   6.418774330194599,
   0.0,
   1.7821468023141376,
   4.376148574199853,
   0.0
  ],
  "name": "C9H10N8O2",
  "molecular_charge": 0.0,
  "molecular_multiplicity": 1,
  "masses": [
   12.0,
   12.0,
   12.0,
   12.0,
   12.0,
   14.00307400443,
   14.00307400443,
   14.00307400443,
   14.00307400443,
   14.00307400443,
   15.99491461957,
   1.00782503223,
   1.00782503223,
   1.00782503223,
   1.00782503223,
   1.00782503223,
   12.0,
   12.0,
   12.0,
   12.0,
   14.00307400443,
   14.00307400443,
   14.00307400443,
   15.99491461957,
   1.00782503223,
   1.00782503223,
   1.00782503223,
   1.00782503223,
   1.00782503223
  ],
  "real": [
   true,
   true,
   true,
   true,
   true,
   true,
   true,
   true,
   true,
   true,
   true,
   true,
   true,
   true,
   true,
   true,
   true,
   true,
   true,
   true,
   true,
   true,
   true,
   true,
   true,
   true,
   true,
   true,
   true
  ],
  "atom_labels": [
   "",
   "",
   "",
   "",
   "",
   "",
   "",
   "",
   "",
   "",
   "",
   "",
   "",
   "",
   "",
   "",
   "",
   "",
   "",
   "",
   "",
   "",
   "",
   "",
   "",
   "",
   "",
   "",
   ""
  ],
  "atomic_numbers": [
   6,
   6,
   6,
   6,
   6,
   7,
   7,
   7,
   7,
   7,
   8,
   1,
   1,
   1,
   1,
   1,
   6,
   6,
   6,
   6,
   7,
   7,
   7,
   8,
   1,
   1,
   1,
   1,
   1
  ],
  "mass_numbers": [
   12,
   12,
   12,
   12,
   12,
   14,
   14,
   14,
   14,
   14,
   16,
   1,
   1,
   1,
   1,
   1,
   12,
   12,
   12,
   12,
   14,
   14,
   14,
   16,
   1,
   1,
   1,
   1,
   1
  ],
  "fragments": [
   [
    0,
    1,
    2,
    3,
    4,
    5,
    6,
    7,
    8,
    9,
    10,
    11,
    12,
    13,
    14,
    15,
    16,
    17,
    18,
    19,
    20,
    21,
    22,
    23,
    24,
    25,
    26,
    27,
    28
   ]
  ],
  "fragment_charges": [
   0.0
  ],
  "fragment_multiplicities": [
   1
  ],
  "fix_com": false,
  "fix_orientation": false,
  "provenance": {
   "creator": "QCElemental",
   "version": "v0.19.0",
   "routine": "qcelemental.molparse.from_string"
  }
 },
 "driver": "energy",
 "model": {
  "method": "b3lyp-d3bj",
  "basis": "def2-svpd"
 },
 "keywords": {
  "guess": "SAP"
 },
 "protocols": {},
 "extras": {
  "qcvars": {
   "2-BODY DISPERSION CORRECTION ENERGY": -0.05834049,
   "B3LYP-D3(BJ) DISPERSION CORRECTION ENERGY": -0.05834049,
   "CURRENT DIPOLE X": 5.797264528439974,
   "CURRENT DIPOLE Y": -0.850536306222479,
   "CURRENT DIPOLE Z": 0.0,
   "CURRENT ENERGY": -936.9826256267648,
   "CURRENT REFERENCE ENERGY": -936.9826256267648,
   "DFT FUNCTIONAL TOTAL ENERGY": -936.9242851367649,
   "DFT TOTAL ENERGY": -936.9826256267648,
   "DFT VV10 ENERGY": 0.0,
   "DFT XC ENERGY": -101.33955263271655,
   "DISPERSION CORRECTION ENERGY": -0.05834049,
   "NUCLEAR REPULSION ENERGY": 1391.9769095425527,
   "ONE-ELECTRON ENERGY": -4038.983202751782,
   "PCM POLARIZATION ENERGY": 0.0,
   "PE ENERGY": 0.0,
   "SCF DIPOLE X": 5.797264528439974,
   "SCF DIPOLE Y": -0.850536306222479,
   "SCF DIPOLE Z": 0.0,
   "SCF ITERATION ENERGY": -936.9826256267648,
   "SCF ITERATIONS": 15.0,
   "SCF TOTAL ENERGY": -936.9826256267648,
   "TWO-ELECTRON ENERGY": 1811.4215607051808,
   "XC GRID RADIAL POINTS": 75.0,
   "XC GRID SPHERICAL POINTS": 302.0,
   "XC GRID TOTAL POINTS": 602904.0,
   "CURRENT DIPOLE": [
    2.280819365014855,
    -0.3346267309976385,
    0.0
   ],
   "SCF DIPOLE": [
    2.280819365014855,
    -0.3346267309976385,
    0.0
   ]
  }
 },
 "provenance": {
  "creator": "Psi4",
  "version": "1.4a2.dev923",
  "routine": "psi4.schema_runner.run_qcschema",
  "wall_time": 71.45845985412598,
  "nthreads": 32,
  "username": "ubuntu",
  "memory": 200.0,
  "cpu": "AMD EPYC Processor (with IBPB)",
  "hostname": "bignimbus",
  "qcengine_version": "v0.17.0"
 },
 "properties": {
  "calcinfo_nbasis": 466,
  "calcinfo_nmo": 466,
  "calcinfo_nalpha": 68,
  "calcinfo_nbeta": 68,
  "calcinfo_natom": 29,
  "nuclear_repulsion_energy": 1391.9769095425527,
  "return_energy": -936.9826256267648,
  "scf_one_electron_energy": -4038.983202751782,
  "scf_two_electron_energy": 1811.4215607051808,
  "scf_xc_energy": -101.33955263271655,
  "scf_dispersion_correction_energy": -0.05834049,
  "scf_dipole_moment": [
   2.280819365014855,
   -0.3346267309976385,
   0.0
  ],
  "scf_total_energy": -936.9826256267648,
  "scf_iterations": 15
 },
 "wavefunction": null,
 "return_result": -936.9826256267648,
 "stdout": "\n    -----------------------------------------------------------------------\n          Psi4: An Open-Source Ab Initio Electronic Structure Package\n                               Psi4 1.4a2.dev923 \n\n                         Git: Rev {master} 5de566e \n\n\n    D. G. A. Smith, L. A. Burns, A. C. Simmonett, R. M. Parrish,\n    M. C. Schieber, R. Galvelis, P. Kraus, H. Kruse, R. Di Remigio,\n    A. Alenaizan, A. M. James, S. Lehtola, J. P. Misiewicz, M. Scheurer,\n    R. A. Shaw, J. B. Schriber, Y. Xie, Z. L. Glick, D. A. Sirianni,\n    J. S. O'Brien, J. M. Waldrop, A. Kumar, E. G. Hohenstein,\n    B. P. Pritchard, B. R. Brooks, H. F. Schaefer III, A. Yu. Sokolov,\n    K. Patkowski, A. E. DePrince III, U. Bozkaya, R. A. King,\n    F. A. Evangelista, J. M. Turney, T. D. Crawford, C. D. Sherrill,\n    J. Chem. Phys. 152(18) 184108 (2020). https://doi.org/10.1063/5.0006002\n\n                            Additional Code Authors\n    E. T. Seidl, C. L. Janssen, E. F. Valeev, M. L. Leininger,\n    J. F. Gonthier, R. M. Richard, H. R. McAlexander, M. Saitow, X. Wang,\n    P. Verma, and M. H. Lechner\n\n             Previous Authors, Complete List of Code Contributors,\n                       and Citations for Specific Modules\n    https://github.com/psi4/psi4/blob/master/codemeta.json\n    https://github.com/psi4/psi4/graphs/contributors\n    http://psicode.org/psi4manual/master/introduction.html#citing-psifour\n\n    -----------------------------------------------------------------------\n\n\n    Psi4 started on: Monday, 17 May 2021 04:26AM\n\n    Process ID: 2489740\n    Host:       bignimbus\n    PSIDATADIR: /home/ubuntu/pk/Applications/miniconda3/envs/psi4-1.4a2.dev923/share/psi4\n    Memory:     186.3 GiB\n    Threads:    32\n    \n  ==> Input QCSchema <==\n\n--------------------------------------------------------------------------\n{'driver': 'energy',\n 'extras': {},\n 'id': None,\n 'keywords': {'guess': 'SAP'},\n 'model': {'basis': 'def2-svpd', 'method': 'b3lyp-d3bj'},\n 'molecule': {'atom_labels': ['', '', '', '', '', '', '', '', '', '', '', '', '', '', '', '', '', '', '', '', '', '',\n                              '', '', '', '', '', '', ''],\n              'atomic_numbers': [6, 6, 6, 6, 6, 7, 7, 7, 7, 7, 8, 1, 1, 1, 1, 1, 6, 6, 6, 6, 7, 7, 7, 8, 1, 1, 1, 1, 1],\n              'fix_com': False,\n              'fix_orientation': False,\n              'fragment_charges': [0.0],\n              'fragment_multiplicities': [1],\n              'fragments': [[0, 1, 2, 3, 4, 5, 6, 7, 8, 9, 10, 11, 12, 13, 14, 15, 16, 17, 18, 19, 20, 21, 22, 23, 24,\n                             25, 26, 27, 28]],\n              'geometry': [-2.8113994634487516, 1.6087221422380074, 0.0, -2.3039399686228084, -2.9997586290943734, 0.0,\n                           -6.165332634064442, -1.4453303895287788, 0.0, -5.448476366728767, 1.0486621207099456, 0.0,\n                           -9.426070181350926, 1.1020468837541293, 0.0, -1.3764056944643424, -0.6015261005370988, 0.0,\n                           -4.709153145487524, -3.5278312564968117, 0.0, -7.541965991116337, 2.607465076255975, 0.0,\n                           -8.722424989358327, -1.403556103799408, 0.0, -0.5990441760437591, -4.861318386652253, 0.0,\n                           -1.75964215270719, 3.6405329956167587, 0.0, 0.5106445787998376, -0.34596520850855866, 0.0,\n                           -11.374954183166212, 1.648653944995057, 0.0, -9.84039074463143, -2.9097320764775625, 0.0,\n                           -1.2545901689650798, -6.615955550305602, 0.0, 1.2657318953796493, -4.546049707963747, 0.0,\n                           5.773800179309704, -1.6318879320862267, 0.0, 9.399285104427557, 1.101476186464241, 0.0,\n                           7.930160991891254, 3.1563076835033193, 0.0, 5.232531594373195, 2.7173356429162188, 0.0,\n                           8.366770874821535, -1.2377760999913692, 0.0, 4.270156439639663, 0.4270839548937297, 0.0,\n                           3.664011667090061, 4.663711978163021, 0.0, 5.000592278912878, -3.7831578224857942, 0.0,\n                           9.43399937335222, -2.7846794501253913, 0.0, 11.426339517148532, 1.19452819060791, 0.0,\n                           8.702735834036055, 5.027762047054095, 0.0, 4.318966175734113, 6.418774330194599, 0.0,\n                           1.7821468023141371, 4.376148574199853, 0.0],\n              'mass_numbers': [12, 12, 12, 12, 12, 14, 14, 14, 14, 14, 16, 1, 1, 1, 1, 1, 12, 12, 12, 12, 14, 14, 14,\n                               16, 1, 1, 1, 1, 1],\n              'masses': [12.0, 12.0, 12.0, 12.0, 12.0, 14.00307400443, 14.00307400443, 14.00307400443, 14.00307400443,\n                         14.00307400443, 15.99491461957, 1.00782503223, 1.00782503223, 1.00782503223, 1.00782503223,\n                         1.00782503223, 12.0, 12.0, 12.0, 12.0, 14.00307400443, 14.00307400443, 14.00307400443,\n                         15.99491461957, 1.00782503223, 1.00782503223, 1.00782503223, 1.00782503223, 1.00782503223],\n              'molecular_charge': 0.0,\n              'molecular_multiplicity': 1,\n              'name': 'C9H10N8O2',\n              'provenance': {'creator': 'QCElemental',\n                             'routine': 'qcelemental.molparse.from_string',\n                             'version': 'v0.19.0'},\n              'real': [True, True, True, True, True, True, True, True, True, True, True, True, True, True, True, True,\n                       True, True, True, True, True, True, True, True, True, True, True, True, True],\n              'symbols': ['C', 'C', 'C', 'C', 'C', 'N', 'N', 'N', 'N', 'N', 'O', 'H', 'H', 'H', 'H', 'H', 'C', 'C', 'C',\n                          'C', 'N', 'N', 'N', 'O', 'H', 'H', 'H', 'H', 'H'],\n              'validated': True},\n 'protocols': {},\n 'provenance': {'creator': 'QCElemental', 'routine': 'qcelemental.models.results', 'version': 'v0.17.0'},\n 'schema_name': 'qcschema_input',\n 'schema_version': 1}\n--------------------------------------------------------------------------\n\nScratch directory: /home/ubuntu/pk/scratch/tmp58qaontz_psi_scratch/\n\n*** tstart() called on bignimbus\n*** at Mon May 17 04:26:06 2021\n\n   => Loading Basis Set <=\n\n    Name: DEF2-SVPD\n    Role: ORBITAL\n    Keyword: BASIS\n    atoms 1-5, 17-20   entry C          line   101 file /home/ubuntu/pk/Applications/miniconda3/envs/psi4-1.4a2.dev923/share/psi4/basis/def2-svpd.gbs \n    atoms 6-10, 21-23  entry N          line   125 file /home/ubuntu/pk/Applications/miniconda3/envs/psi4-1.4a2.dev923/share/psi4/basis/def2-svpd.gbs \n    atoms 11, 24       entry O          line   149 file /home/ubuntu/pk/Applications/miniconda3/envs/psi4-1.4a2.dev923/share/psi4/basis/def2-svpd.gbs \n    atoms 12-16, 25-29 entry H          line    14 file /home/ubuntu/pk/Applications/miniconda3/envs/psi4-1.4a2.dev923/share/psi4/basis/def2-svpd.gbs \n\n   => B3LYP-D3(BJ): Empirical Dispersion <=\n\n    Grimme's -D3 (BJ-damping) Dispersion Correction\n    Grimme S.; Ehrlich S.; Goerigk L. (2011), J. Comput. Chem., 32: 1456\n\n        s6 =       1.000000\n        s8 =       1.988900\n        a1 =       0.398100\n        a2 =       4.421100\n\n\n         ---------------------------------------------------------\n                                   SCF\n               by Justin Turney, Rob Parrish, Andy Simmonett\n                          and Daniel G. A. Smith\n                              RKS Reference\n                       32 Threads, 190734 MiB Core\n         ---------------------------------------------------------\n\n  ==> Geometry <==\n\n    Molecular point group: cs\n    Full point group: Cs\n\n    Geometry (in Bohr), charge = 0, multiplicity = 1:\n\n       Center              X                  Y                   Z               Mass       \n    ------------   -----------------  -----------------  -----------------  -----------------\n         C           -2.811399463449     1.608722142238     0.000000000000    12.000000000000\n         C           -2.303939968623    -2.999758629094     0.000000000000    12.000000000000\n         C           -6.165332634064    -1.445330389529     0.000000000000    12.000000000000\n         C           -5.448476366729     1.048662120710     0.000000000000    12.000000000000\n         C           -9.426070181351     1.102046883754     0.000000000000    12.000000000000\n         N           -1.376405694464    -0.601526100537     0.000000000000    14.003074004430\n         N           -4.709153145488    -3.527831256497     0.000000000000    14.003074004430\n         N           -7.541965991116     2.607465076256     0.000000000000    14.003074004430\n         N           -8.722424989358    -1.403556103799     0.000000000000    14.003074004430\n         N           -0.599044176044    -4.861318386652     0.000000000000    14.003074004430\n         O           -1.759642152707     3.640532995617     0.000000000000    15.994914619570\n         H            0.510644578800    -0.345965208509     0.000000000000     1.007825032230\n         H          -11.374954183166     1.648653944995     0.000000000000     1.007825032230\n         H           -9.840390744631    -2.909732076478     0.000000000000     1.007825032230\n         H           -1.254590168965    -6.615955550306     0.000000000000     1.007825032230\n         H            1.265731895380    -4.546049707964     0.000000000000     1.007825032230\n         C            5.773800179310    -1.631887932086     0.000000000000    12.000000000000\n         C            9.399285104428     1.101476186464     0.000000000000    12.000000000000\n         C            7.930160991891     3.156307683503     0.000000000000    12.000000000000\n         C            5.232531594373     2.717335642916     0.000000000000    12.000000000000\n         N            8.366770874822    -1.237776099991     0.000000000000    14.003074004430\n         N            4.270156439640     0.427083954894     0.000000000000    14.003074004430\n         N            3.664011667090     4.663711978163     0.000000000000    14.003074004430\n         O            5.000592278913    -3.783157822486     0.000000000000    15.994914619570\n         H            9.433999373352    -2.784679450125     0.000000000000     1.007825032230\n         H           11.426339517149     1.194528190608     0.000000000000     1.007825032230\n         H            8.702735834036     5.027762047054     0.000000000000     1.007825032230\n         H            4.318966175734     6.418774330195     0.000000000000     1.007825032230\n         H            1.782146802314     4.376148574200     0.000000000000     1.007825032230\n\n  Running in cs symmetry.\n\n  Rotational constants: A =      0.03012  B =      0.00652  C =      0.00536 [cm^-1]\n  Rotational constants: A =    902.90857  B =    195.51287  C =    160.71267 [MHz]\n  Nuclear repulsion = 1391.976909542552676\n\n  Charge       = 0\n  Multiplicity = 1\n  Electrons    = 136\n  Nalpha       = 68\n  Nbeta        = 68\n\n  ==> Algorithm <==\n\n  SCF Algorithm Type is DF.\n  DIIS enabled.\n  MOM disabled.\n  Fractional occupation disabled.\n  Guess Type is SAP.\n  Energy threshold   = 1.00e-06\n  Density threshold  = 1.00e-06\n  Integral threshold = 0.00e+00\n\n  ==> Primary Basis <==\n\n  Basis Set: DEF2-SVPD\n    Blend: DEF2-SVPD\n    Number of shells: 194\n    Number of basis function: 466\n    Number of Cartesian functions: 504\n    Spherical Harmonics?: true\n    Max angular momentum: 2\n\n  ==> DFT Potential <==\n\n   => Composite Functional: B3LYP-D3BJ <= \n\n    B3LYP-d3bj Hyb-GGA Exchange-Correlation Functional\n\n    P. J. Stephens, F. J. Devlin, C. F. Chabalowski, and M. J. Frisch, J. Phys. Chem. 98, 11623 (1994)\n\n    Deriv               =              1\n    GGA                 =           TRUE\n    Meta                =          FALSE\n\n    Exchange Hybrid     =           TRUE\n    MP2 Hybrid          =          FALSE\n\n   => Exchange Functionals <=\n\n    0.0800   Slater exchange\n    0.7200         Becke 88\n\n   => Exact (HF) Exchange <=\n\n    0.2000               HF \n\n   => Correlation Functionals <=\n\n    0.1900   Vosko, Wilk & Nusair (VWN5_RPA)\n    0.8100   Lee, Yang & Parr\n\n   => LibXC Density Thresholds  <==\n\n    XC_HYB_GGA_XC_B3LYP:  1.00E-32 \n\n   => Molecular Quadrature <=\n\n    Radial Scheme          =       TREUTLER\n    Pruning Scheme         =           NONE\n    Nuclear Scheme         =       TREUTLER\n\n    BS radius alpha        =              1\n    Pruning alpha          =              1\n    Radial Points          =             75\n    Spherical Points       =            302\n    Total Points           =         602904\n    Total Blocks           =           4442\n    Max Points             =            256\n    Max Functions          =            389\n    Weights Tolerance      =       1.00E-15\n\n   => Loading Basis Set <=\n\n    Name: (DEF2-SVPD AUX)\n    Role: JKFIT\n    Keyword: DF_BASIS_SCF\n    atoms 1-5, 17-20   entry C          line   198 file /home/ubuntu/pk/Applications/miniconda3/envs/psi4-1.4a2.dev923/share/psi4/basis/def2-universal-jkfit.gbs \n    atoms 6-10, 21-23  entry N          line   258 file /home/ubuntu/pk/Applications/miniconda3/envs/psi4-1.4a2.dev923/share/psi4/basis/def2-universal-jkfit.gbs \n    atoms 11, 24       entry O          line   318 file /home/ubuntu/pk/Applications/miniconda3/envs/psi4-1.4a2.dev923/share/psi4/basis/def2-universal-jkfit.gbs \n    atoms 12-16, 25-29 entry H          line    18 file /home/ubuntu/pk/Applications/miniconda3/envs/psi4-1.4a2.dev923/share/psi4/basis/def2-universal-jkfit.gbs \n\n  ==> Integral Setup <==\n\n  DFHelper Memory: AOs need 2.329 GiB; user supplied 134.817 GiB. Using in-core AOs.\n\n  ==> MemDFJK: Density-Fitted J/K Matrices <==\n\n    J tasked:                   Yes\n    K tasked:                   Yes\n    wK tasked:                   No\n    OpenMP threads:              32\n    Memory [MiB]:            138052\n    Algorithm:                 Core\n    Schwarz Cutoff:           1E-12\n    Mask sparsity (%):      15.8080\n    Fitting Condition:        1E-10\n\n   => Auxiliary Basis Set <=\n\n  Basis Set: (DEF2-SVPD AUX)\n    Blend: DEF2-UNIVERSAL-JKFIT\n    Number of shells: 535\n    Number of basis function: 1625\n    Number of Cartesian functions: 1931\n    Spherical Harmonics?: true\n    Max angular momentum: 4\n\n  Cached 100.0% of DFT collocation blocks in 4.882 [GiB].\n\n  Minimum eigenvalue in the overlap matrix is 1.8523414990E-05.\n  Reciprocal condition number of the overlap matrix is 1.5264780711E-06.\n    Using symmetric orthogonalization.\n\n  ==> Pre-Iterations <==\n\n  SCF Guess: Superposition of Atomic Potentials (doi:10.1021/acs.jctc.8b01089).\n\n  ==> SAP guess <==\n\n   => Molecular Quadrature <=\n\n    Radial Scheme          =       TREUTLER\n    Pruning Scheme         =           NONE\n    Nuclear Scheme         =       TREUTLER\n\n    BS radius alpha        =              1\n    Pruning alpha          =              1\n    Radial Points          =             75\n    Spherical Points       =            302\n    Total Points           =         602904\n    Total Blocks           =           4442\n    Max Points             =            256\n    Max Functions          =            389\n    Weights Tolerance      =       1.00E-15\n\n   -------------------------------------------------------\n    Irrep   Nso     Nmo     Nalpha   Nbeta   Ndocc  Nsocc\n   -------------------------------------------------------\n     A'       330     330      56      56      56       0\n     A\"       136     136      12      12      12       0\n   -------------------------------------------------------\n    Total     466     466      68      68      68       0\n   -------------------------------------------------------\n\n  ==> Iterations <==\n\n                           Total Energy        Delta E     RMS |[F,P]|\n\n    Occupation by irrep:\n             Ap   App \n    DOCC [    59,    9 ]\n\n   @DF-RKS iter   1:  -930.96035595949991   -9.30960e+02   9.68600e-03 DIIS\n    Occupation by irrep:\n             Ap   App \n    DOCC [    56,   12 ]\n\n   @DF-RKS iter   2:  -884.74502163763975    4.62153e+01   2.27286e-02 DIIS\n   @DF-RKS iter   3:  -933.58277330308226   -4.88378e+01   5.86592e-03 DIIS\n   @DF-RKS iter   4:  -925.55261816007157    8.03016e+00   9.10105e-03 DIIS\n   @DF-RKS iter   5:  -934.79687800987347   -9.24426e+00   4.20311e-03 DIIS\n   @DF-RKS iter   6:  -936.86151103114992   -2.06463e+00   1.43089e-03 DIIS\n   @DF-RKS iter   7:  -936.92052423162863   -5.90132e-02   1.10634e-03 DIIS\n   @DF-RKS iter   8:  -936.97960171542479   -5.90775e-02   2.30019e-04 DIIS\n   @DF-RKS iter   9:  -936.98196455076049   -2.36284e-03   1.09198e-04 DIIS\n   @DF-RKS iter  10:  -936.98257200683770   -6.07456e-04   3.01571e-05 DIIS\n   @DF-RKS iter  11:  -936.98261654596934   -4.45391e-05   1.15855e-05 DIIS\n   @DF-RKS iter  12:  -936.98262261031175   -6.06434e-06   6.33494e-06 DIIS\n   @DF-RKS iter  13:  -936.98262469469887   -2.08439e-06   3.63058e-06 DIIS\n   @DF-RKS iter  14:  -936.98262556771772   -8.73019e-07   1.02415e-06 DIIS\n   @DF-RKS iter  15:  -936.98262562676484   -5.90471e-08   4.98273e-07 DIIS\n  Energy and wave function converged.\n\n\n  ==> Post-Iterations <==\n\n    Orbital Energies [Eh]\n    ---------------------\n\n    Doubly Occupied:                                                      \n\n       1Ap   -19.115819     2Ap   -19.100396     3Ap   -14.401492  \n       4Ap   -14.377714     5Ap   -14.361003     6Ap   -14.358410  \n       7Ap   -14.336954     8Ap   -14.327018     9Ap   -14.307707  \n      10Ap   -14.307236    11Ap   -10.322850    12Ap   -10.298304  \n      13Ap   -10.297307    14Ap   -10.282253    15Ap   -10.274732  \n      16Ap   -10.246315    17Ap   -10.237718    18Ap   -10.215490  \n      19Ap   -10.187131    20Ap    -1.069495    21Ap    -1.042255  \n      22Ap    -1.019995    23Ap    -0.993136    24Ap    -0.991055  \n      25Ap    -0.964538    26Ap    -0.895220    27Ap    -0.892886  \n      28Ap    -0.889001    29Ap    -0.865333    30Ap    -0.802891  \n      31Ap    -0.748760    32Ap    -0.687332    33Ap    -0.676891  \n      34Ap    -0.666327    35Ap    -0.647653    36Ap    -0.617783  \n      37Ap    -0.597029    38Ap    -0.595532    39Ap    -0.589649  \n      40Ap    -0.554185    41Ap    -0.541939    42Ap    -0.536032  \n      43Ap    -0.517290    44Ap    -0.504106     1App   -0.486253  \n      45Ap    -0.484107     2App   -0.474734    46Ap    -0.470703  \n      47Ap    -0.463342    48Ap    -0.450640    49Ap    -0.437050  \n      50Ap    -0.429647     3App   -0.427361    51Ap    -0.417857  \n       4App   -0.408035     5App   -0.390543     6App   -0.377596  \n      52Ap    -0.310827     7App   -0.308117    53Ap    -0.299015  \n      54Ap    -0.291195     8App   -0.279579     9App   -0.277960  \n      10App   -0.272220    55Ap    -0.266932    11App   -0.262982  \n      56Ap    -0.256965    12App   -0.203463  \n\n    Virtual:                                                              \n\n      13App   -0.055746    14App   -0.009280    57Ap    -0.005022  \n      15App   -0.001231    16App    0.011743    58Ap     0.019491  \n      59Ap     0.025390    60Ap     0.032225    61Ap     0.046434  \n      17App    0.050310    62Ap     0.053166    63Ap     0.059582  \n      64Ap     0.070873    65Ap     0.077453    18App    0.085246  \n      66Ap     0.092838    67Ap     0.101282    68Ap     0.105666  \n      19App    0.113068    20App    0.121408    69Ap     0.123269  \n      70Ap     0.130131    21App    0.133505    71Ap     0.134681  \n      72Ap     0.139310    73Ap     0.152143    22App    0.153368  \n      74Ap     0.166016    75Ap     0.170491    23App    0.171427  \n      76Ap     0.173346    24App    0.175683    77Ap     0.184007  \n      25App    0.195266    78Ap     0.195593    26App    0.200103  \n      79Ap     0.206015    80Ap     0.210657    81Ap     0.218914  \n      27App    0.220768    82Ap     0.225980    83Ap     0.226541  \n      28App    0.234397    84Ap     0.234988    29App    0.241343  \n      85Ap     0.248227    86Ap     0.253464    87Ap     0.258133  \n      88Ap     0.260729    30App    0.261181    89Ap     0.263471  \n      90Ap     0.270157    91Ap     0.280838    92Ap     0.284848  \n      31App    0.290779    93Ap     0.291138    94Ap     0.294597  \n      95Ap     0.300573    32App    0.302846    96Ap     0.303567  \n      97Ap     0.311086    98Ap     0.311501    33App    0.319458  \n      99Ap     0.319989   100Ap     0.326760    34App    0.327652  \n     101Ap     0.333286    35App    0.337275   102Ap     0.341115  \n     103Ap     0.341849   104Ap     0.346856   105Ap     0.354593  \n     106Ap     0.356211    36App    0.356951    37App    0.360047  \n     107Ap     0.360927   108Ap     0.367931   109Ap     0.370714  \n     110Ap     0.377090    38App    0.380063   111Ap     0.384143  \n     112Ap     0.386068   113Ap     0.391345   114Ap     0.394931  \n      39App    0.399398   115Ap     0.406034   116Ap     0.407065  \n      40App    0.415180   117Ap     0.415937   118Ap     0.421824  \n     119Ap     0.428826    41App    0.431907   120Ap     0.434906  \n     121Ap     0.437374   122Ap     0.448521    42App    0.453390  \n     123Ap     0.458688    43App    0.459681   124Ap     0.464181  \n     125Ap     0.465842    44App    0.468357   126Ap     0.474544  \n     127Ap     0.477619   128Ap     0.484891    45App    0.487687  \n      46App    0.493070   129Ap     0.494735   130Ap     0.512837  \n     131Ap     0.523731    47App    0.526004   132Ap     0.535939  \n     133Ap     0.538785    48App    0.548977   134Ap     0.552128  \n      49App    0.558884   135Ap     0.562670    50App    0.565972  \n      51App    0.576426   136Ap     0.580499   137Ap     0.583502  \n      52App    0.584210   138Ap     0.587471    53App    0.592312  \n     139Ap     0.592462   140Ap     0.600069   141Ap     0.608737  \n     142Ap     0.616466    54App    0.617200   143Ap     0.627708  \n     144Ap     0.635465    55App    0.638947   145Ap     0.639141  \n     146Ap     0.642283   147Ap     0.645810    56App    0.647457  \n     148Ap     0.656860   149Ap     0.659978   150Ap     0.666706  \n      57App    0.669598   151Ap     0.683202    58App    0.685265  \n     152Ap     0.689567   153Ap     0.692638    59App    0.693340  \n     154Ap     0.707782    60App    0.714038   155Ap     0.717572  \n     156Ap     0.719238    61App    0.722732   157Ap     0.727903  \n     158Ap     0.728128    62App    0.730731   159Ap     0.741458  \n      63App    0.742649   160Ap     0.744866   161Ap     0.749226  \n      64App    0.756230   162Ap     0.757606   163Ap     0.769441  \n      65App    0.770487   164Ap     0.774886   165Ap     0.779806  \n     166Ap     0.781667    66App    0.788362   167Ap     0.792103  \n     168Ap     0.798677   169Ap     0.803442    67App    0.806365  \n     170Ap     0.810802    68App    0.813628   171Ap     0.822992  \n      69App    0.828586   172Ap     0.828691    70App    0.838872  \n     173Ap     0.853314    71App    0.857219   174Ap     0.861555  \n      72App    0.867805   175Ap     0.868844   176Ap     0.874500  \n     177Ap     0.891067   178Ap     0.902077   179Ap     0.909726  \n      73App    0.917226    74App    0.924433   180Ap     0.930525  \n     181Ap     0.942430    75App    0.945436   182Ap     0.951025  \n     183Ap     0.953472   184Ap     0.967422   185Ap     0.977140  \n     186Ap     0.980001   187Ap     0.996279   188Ap     1.010212  \n      76App    1.027169   189Ap     1.034641    77App    1.041350  \n     190Ap     1.044353   191Ap     1.052812   192Ap     1.062614  \n     193Ap     1.075729    78App    1.085620   194Ap     1.100111  \n     195Ap     1.110482   196Ap     1.115639   197Ap     1.124509  \n     198Ap     1.136188   199Ap     1.140579   200Ap     1.153559  \n     201Ap     1.160508   202Ap     1.176064    79App    1.178485  \n     203Ap     1.191549   204Ap     1.196231    80App    1.203832  \n      81App    1.204242   205Ap     1.213318   206Ap     1.223367  \n      82App    1.227434   207Ap     1.237947    83App    1.240723  \n     208Ap     1.241652    84App    1.249100   209Ap     1.265773  \n      85App    1.279760   210Ap     1.283689   211Ap     1.297212  \n     212Ap     1.302235   213Ap     1.328975    86App    1.344927  \n     214Ap     1.349395   215Ap     1.372975   216Ap     1.384269  \n     217Ap     1.407169   218Ap     1.432451   219Ap     1.448954  \n      87App    1.460231   220Ap     1.468550   221Ap     1.491870  \n     222Ap     1.506948    88App    1.525404   223Ap     1.539147  \n      89App    1.539882    90App    1.549659   224Ap     1.560101  \n     225Ap     1.576618    91App    1.579392    92App    1.606166  \n     226Ap     1.621301    93App    1.637629   227Ap     1.645667  \n     228Ap     1.654143   229Ap     1.663489   230Ap     1.686161  \n     231Ap     1.693269    94App    1.698803   232Ap     1.722864  \n     233Ap     1.724719    95App    1.725084    96App    1.736889  \n     234Ap     1.737318   235Ap     1.749460    97App    1.767141  \n     236Ap     1.768694   237Ap     1.778745   238Ap     1.790675  \n      98App    1.794306   239Ap     1.798844    99App    1.800328  \n     240Ap     1.808232   241Ap     1.816087   100App    1.817315  \n     101App    1.821603   242Ap     1.824000   102App    1.836813  \n     243Ap     1.839548   244Ap     1.856746   103App    1.862342  \n     245Ap     1.863623   246Ap     1.873305   104App    1.897353  \n     247Ap     1.903989   248Ap     1.917823   105App    1.923464  \n     249Ap     1.928096   106App    1.935907   250Ap     1.941284  \n     251Ap     1.953859   107App    1.959848   252Ap     1.964228  \n     253Ap     1.985625   108App    1.991938   254Ap     2.012949  \n     109App    2.028190   255Ap     2.037270   256Ap     2.043184  \n     257Ap     2.048309   110App    2.054235   258Ap     2.076343  \n     111App    2.077038   259Ap     2.090828   112App    2.106815  \n     260Ap     2.107345   261Ap     2.115821   262Ap     2.124864  \n     263Ap     2.145749   264Ap     2.155474   113App    2.157698  \n     265Ap     2.168418   266Ap     2.179170   267Ap     2.194248  \n     268Ap     2.201571   269Ap     2.211985   270Ap     2.219155  \n     271Ap     2.236674   272Ap     2.249011   114App    2.284318  \n     273Ap     2.286836   274Ap     2.297576   275Ap     2.322692  \n     276Ap     2.334059   115App    2.344381   277Ap     2.350536  \n     278Ap     2.374731   279Ap     2.386427   280Ap     2.416661  \n     116App    2.420731   281Ap     2.445508   282Ap     2.478662  \n     283Ap     2.481708   117App    2.500239   284Ap     2.502875  \n     285Ap     2.511443   286Ap     2.546140   118App    2.546466  \n     119App    2.576621   287Ap     2.582606   288Ap     2.587555  \n     120App    2.588203   121App    2.607561   289Ap     2.617587  \n     290Ap     2.628088   122App    2.633136   291Ap     2.644864  \n     123App    2.644923   124App    2.661970   292Ap     2.664247  \n     125App    2.680811   293Ap     2.712937   126App    2.772388  \n     294Ap     2.791359   127App    2.792524   128App    2.793564  \n     129App    2.846934   130App    2.851634   295Ap     2.859835  \n     296Ap     2.862250   297Ap     2.877274   131App    2.892125  \n     298Ap     2.917224   132App    2.935399   299Ap     2.940177  \n     133App    2.985888   300Ap     2.990866   134App    3.010005  \n     301Ap     3.018694   302Ap     3.044405   303Ap     3.083765  \n     304Ap     3.106580   305Ap     3.122677   306Ap     3.139995  \n     307Ap     3.155751   308Ap     3.200198   309Ap     3.209422  \n     310Ap     3.233159   135App    3.233233   311Ap     3.244290  \n     136App    3.254915   312Ap     3.285138   313Ap     3.303624  \n     314Ap     3.319853   315Ap     3.358029   316Ap     3.380950  \n     317Ap     3.416024   318Ap     3.459807   319Ap     3.507981  \n     320Ap     3.537528   321Ap     3.573537   322Ap     3.615647  \n     323Ap     3.640669   324Ap     3.733254   325Ap     3.747017  \n     326Ap     3.767773   327Ap     3.797401   328Ap     3.829313  \n     329Ap     3.904131   330Ap     3.964497  \n\n    Final Occupation by Irrep:\n             Ap   App \n    DOCC [    56,   12 ]\n\n  @DF-RKS Final Energy:  -936.98262562676484\n\n   => Energetics <=\n\n    Nuclear Repulsion Energy =           1391.9769095425526757\n    One-Electron Energy =               -4038.9832027517818460\n    Two-Electron Energy =                1811.4215607051808092\n    DFT Exchange-Correlation Energy =    -101.3395526327165470\n    Empirical Dispersion Energy =          -0.0583404900000000\n    VV10 Nonlocal Energy =                  0.0000000000000000\n    Total Energy =                       -936.9826256267648432\n\nComputation Completed\n\n\nProperties will be evaluated at   0.000000,   0.000000,   0.000000 [a0]\n\nProperties computed using the SCF density matrix\n\n  Nuclear Dipole Moment: [e a0]\n     X:     7.4452      Y:     0.7317      Z:     0.0000\n\n  Electronic Dipole Moment: [e a0]\n     X:    -5.1644      Y:    -1.0663      Z:     0.0000\n\n  Dipole Moment: [e a0]\n     X:     2.2808      Y:    -0.3346      Z:     0.0000     Total:     2.3052\n\n  Dipole Moment: [D]\n     X:     5.7973      Y:    -0.8505      Z:     0.0000     Total:     5.8593\n\n\n*** tstop() called on bignimbus at Mon May 17 04:27:12 2021\nModule time:\n\tuser time   =    1678.43 seconds =      27.97 minutes\n\tsystem time =      27.15 seconds =       0.45 minutes\n\ttotal time  =         66 seconds =       1.10 minutes\nTotal time:\n\tuser time   =    1678.43 seconds =      27.97 minutes\n\tsystem time =      27.15 seconds =       0.45 minutes\n\ttotal time  =         66 seconds =       1.10 minutes\n\n    Psi4 stopped on: Monday, 17 May 2021 04:27AM\n    Psi4 wall time for execution: 0:01:06.57\n\n*** Psi4 exiting successfully. Buy a developer a beer!\n",
 "stderr": null,
 "success": true,
 "error": null,
 "tag": "b3lyp-d3bj def2-svpd gcgc_b"
}