{
 "id": null,
 "schema_name": "qcschema_output",
 "schema_version": 1,
 "molecule": {
  "validated": true,
  "symbols": [
   "C",
   "C",
   "C",
   "C",
   "C",
   "N",
   "N",
   "N",
   "N",
   "N",
   "H",
   "H",
   "H",
   "H",
   "H"
  ],
  "geometry": [
   -2.6005148446510584,
   0.05786205884492528,
   -0.05834799091184591,
   -0.1816654040650379,
   -1.05140717679882,
   0.03991776761196013,
   1.8611285375548743,
   0.6342285271095628,
   0.08527119462294801,
   -0.6465380309276636,
   3.967705412417172,
   0.03235886311012896,
   3.108347780357041,
   -3.3625422282337434,
   0.004012971228262096,
   -2.7857080049459246,
   2.5976539714602467,
   -0.05267881253547342,
   1.7553038745292358,
   3.1645718090975947,
   0.09849927750115343,
   0.6309168298818281,
   -3.543955936277695,
   -0.011104837775400235,
   3.9719526196912684,
   -0.9002290867621937,
   0.08716092074840669,
   -4.769920436676645,
   -1.3273071911156629,
   -0.11126032242466495,
   -0.9092099623663019,
   6.004830175660711,
   0.019130780231924428,
   4.406589628546569,
   -4.938573816865572,
   -0.07157607379005133,
   5.787979426256241,
   -0.31630371399572466,
   -0.04700963415909916,
   -6.351621203684847,
   -0.38811330676312217,
   -0.6366041853019416,
   -4.6414190601455125,
   -3.160341532809756,
   -0.6403836375528572
  ],
  "name": "C5H5N5",
  "molecular_charge": 0.0,
  "molecular_multiplicity": 1,
  "masses": [
   12.0,
   12.0,
   12.0,
   12.0,
   12.0,
   14.00307400443,
   14.00307400443,
   14.00307400443,
   14.00307400443,
   14.00307400443,
   1.00782503223,
   1.00782503223,
   1.00782503223,
   1.00782503223,
   1.00782503223
  ],
  "real": [
   true,
   true,
   true,
   true,
   true,
   true,
   true,
   true,
   true,
   true,
   true,
   true,
   true,
   true,
   true
  ],
  "atom_labels": [
   "",
   "",
   "",
   "",
   "",
   "",
   "",
   "",
   "",
   "",
   "",
   "",
   "",
   "",
   ""
  ],
  "atomic_numbers": [
   6,
   6,
   6,
   6,
   6,
   7,
   7,
   7,
   7,
   7,
   1,
   1,
   1,
   1,
   1
  ],
  "mass_numbers": [
   12,
   12,
   12,
   12,
   12,
   14,
   14,
   14,
   14,
   14,
   1,
   1,
   1,
   1,
   1
  ],
  "fragments": [
   [
    0,
    1,
    2,
    3,
    4,
    5,
    6,
    7,
    8,
    9,
    10,
    11,
    12,
    13,
    14
   ]
  ],
  "fragment_charges": [
   0.0
  ],
  "fragment_multiplicities": [
   1
  ],
  "fix_com": false,
  "fix_orientation": false,
  "provenance": {
   "creator": "QCElemental",
   "version": "v0.19.0",
   "routine": "qcelemental.molparse.from_string"
  }
 },
 "driver": "energy",
 "model": {
  "method": "m062x-d3",
  "basis": "def2-tzvpd"
 },
 "keywords": {},
 "protocols": {},
 "extras": {
  "qcvars": {
   "2-BODY DISPERSION CORRECTION ENERGY": -0.00033434,
   "CURRENT DIPOLE X": 1.5860387489831413,
   "CURRENT DIPOLE Y": -1.8633067574394946,
   "CURRENT DIPOLE Z": -0.9218825406942961,
   "CURRENT ENERGY": -467.3242215910521,
   "CURRENT REFERENCE ENERGY": -467.3242215910521,
   "DFT FUNCTIONAL TOTAL ENERGY": -467.3238872510521,
   "DFT TOTAL ENERGY": -467.3242215910521,
   "DFT VV10 ENERGY": 0.0,
   "DFT XC ENERGY": -30.62490117609965,
   "DISPERSION CORRECTION ENERGY": -0.00033434,
   "M06-2X-D3 DISPERSION CORRECTION ENERGY": -0.00033434,
   "NUCLEAR REPULSION ENERGY": 501.2235939031376,
   "ONE-ELECTRON ENERGY": -1626.2717230102821,
   "PCM POLARIZATION ENERGY": 0.0,
   "PE ENERGY": 0.0,
   "SCF DIPOLE X": 1.5860387489831413,
   "SCF DIPOLE Y": -1.8633067574394946,
   "SCF DIPOLE Z": -0.9218825406942961,
   "SCF ITERATION ENERGY": -467.3242215910521,
   "SCF ITERATIONS": 9.0,
   "SCF TOTAL ENERGY": -467.3242215910521,
   "TWO-ELECTRON ENERGY": 688.3491430321922,
   "XC GRID RADIAL POINTS": 75.0,
   "XC GRID SPHERICAL POINTS": 302.0,
   "XC GRID TOTAL POINTS": 317510.0,
   "CURRENT DIPOLE": [
    0.6239956577103327,
    -0.7330812859206655,
    -0.36269649949033145
   ],
   "SCF DIPOLE": [
    0.6239956577103327,
    -0.7330812859206655,
    -0.36269649949033145
   ]
  }
 },
 "provenance": {
  "creator": "Psi4",
  "version": "1.4a2.dev923",
  "routine": "psi4.schema_runner.run_qcschema",
  "memory": 256.0,
  "wall_time": 27.539860010147095,
  "hostname": "bignimbus",
  "username": "ubuntu",
  "qcengine_version": "v0.17.0",
  "nthreads": 16,
  "cpu": "AMD EPYC Processor (with IBPB)"
 },
 "properties": {
  "calcinfo_nbasis": 415,
  "calcinfo_nmo": 415,
  "calcinfo_nalpha": 35,
  "calcinfo_nbeta": 35,
  "calcinfo_natom": 15,
  "nuclear_repulsion_energy": 501.2235939031376,
  "return_energy": -467.3242215910521,
  "scf_one_electron_energy": -1626.2717230102821,
  "scf_two_electron_energy": 688.3491430321922,
  "scf_xc_energy": -30.62490117609965,
  "scf_dispersion_correction_energy": -0.00033434,
  "scf_dipole_moment": [
   0.6239956577103327,
   -0.7330812859206655,
   -0.36269649949033145
  ],
  "scf_total_energy": -467.3242215910521,
  "scf_iterations": 9
 },
 "wavefunction": null,
 "return_result": -467.3242215910521,
 "stdout": "\n    -----------------------------------------------------------------------\n          Psi4: An Open-Source Ab Initio Electronic Structure Package\n                               Psi4 1.4a2.dev923 \n\n                         Git: Rev {master} 5de566e \n\n\n    D. G. A. Smith, L. A. Burns, A. C. Simmonett, R. M. Parrish,\n    M. C. Schieber, R. Galvelis, P. Kraus, H. Kruse, R. Di Remigio,\n    A. Alenaizan, A. M. James, S. Lehtola, J. P. Misiewicz, M. Scheurer,\n    R. A. Shaw, J. B. Schriber, Y. Xie, Z. L. Glick, D. A. Sirianni,\n    J. S. O'Brien, J. M. Waldrop, A. Kumar, E. G. Hohenstein,\n    B. P. Pritchard, B. R. Brooks, H. F. Schaefer III, A. Yu. Sokolov,\n    K. Patkowski, A. E. DePrince III, U. Bozkaya, R. A. King,\n    F. A. Evangelista, J. M. Turney, T. D. Crawford, C. D. Sherrill,\n    J. Chem. Phys. 152(18) 184108 (2020). https://doi.org/10.1063/5.0006002\n\n                            Additional Code Authors\n    E. T. Seidl, C. L. Janssen, E. F. Valeev, M. L. Leininger,\n    J. F. Gonthier, R. M. Richard, H. R. McAlexander, M. Saitow, X. Wang,\n    P. Verma, and M. H. Lechner\n\n             Previous Authors, Complete List of Code Contributors,\n                       and Citations for Specific Modules\n    https://github.com/psi4/psi4/blob/master/codemeta.json\n    https://github.com/psi4/psi4/graphs/contributors\n    http://psicode.org/psi4manual/master/introduction.html#citing-psifour\n\n    -----------------------------------------------------------------------\n\n\n    Psi4 started on: Saturday, 24 April 2021 06:21PM\n\n    Process ID: 3856538\n    Host:       bignimbus\n    PSIDATADIR: /home/ubuntu/pk/Applications/miniconda3/envs/psi4-1.4a2.dev923/share/psi4\n    Memory:     238.4 GiB\n    Threads:    16\n    \n  ==> Input QCSchema <==\n\n--------------------------------------------------------------------------\n{'driver': 'energy',\n 'extras': {},\n 'id': None,\n 'keywords': {},\n 'model': {'basis': 'def2-tzvpd', 'method': 'm062x-d3'},\n 'molecule': {'atom_labels': ['', '', '', '', '', '', '', '', '', '', '', '', '', '', ''],\n              'atomic_numbers': [6, 6, 6, 6, 6, 7, 7, 7, 7, 7, 1, 1, 1, 1, 1],\n              'fix_com': False,\n              'fix_orientation': False,\n              'fragment_charges': [0.0],\n              'fragment_multiplicities': [1],\n              'fragments': [[0, 1, 2, 3, 4, 5, 6, 7, 8, 9, 10, 11, 12, 13, 14]],\n              'geometry': [-2.600514844651058, 0.0578620588449254, -0.05834799091184806, -0.1816654040650374,\n                           -1.0514071767988198, 0.03991776761195798, 1.8611285375548747, 0.6342285271095629,\n                           0.08527119462294586, -0.6465380309276632, 3.967705412417172, 0.03235886311012681,\n                           3.1083477803570414, -3.3625422282337434, 0.004012971228259943, -2.785708004945924,\n                           2.5976539714602467, -0.05267881253547557, 1.7553038745292362, 3.1645718090975947,\n                           0.09849927750115128, 0.6309168298818285, -3.543955936277695, -0.011104837775402387,\n                           3.971952619691269, -0.9002290867621936, 0.08716092074840454, -4.769920436676644,\n                           -1.3273071911156626, -0.1112603224246671, -0.9092099623663015, 6.004830175660711,\n                           0.019130780231922273, 4.40658962854657, -4.938573816865572, -0.07157607379005348,\n                           5.787979426256242, -0.31630371399572454, -0.04700963415910131, -6.3516212036848465,\n                           -0.38811330676312206, -0.6366041853019437, -4.641419060145512, -3.160341532809756,\n                           -0.6403836375528593],\n              'mass_numbers': [12, 12, 12, 12, 12, 14, 14, 14, 14, 14, 1, 1, 1, 1, 1],\n              'masses': [12.0, 12.0, 12.0, 12.0, 12.0, 14.00307400443, 14.00307400443, 14.00307400443, 14.00307400443,\n                         14.00307400443, 1.00782503223, 1.00782503223, 1.00782503223, 1.00782503223, 1.00782503223],\n              'molecular_charge': 0.0,\n              'molecular_multiplicity': 1,\n              'name': 'C5H5N5',\n              'provenance': {'creator': 'QCElemental',\n                             'routine': 'qcelemental.molparse.from_string',\n                             'version': 'v0.19.0'},\n              'real': [True, True, True, True, True, True, True, True, True, True, True, True, True, True, True],\n              'symbols': ['C', 'C', 'C', 'C', 'C', 'N', 'N', 'N', 'N', 'N', 'H', 'H', 'H', 'H', 'H'],\n              'validated': True},\n 'protocols': {},\n 'provenance': {'creator': 'QCElemental', 'routine': 'qcelemental.models.results', 'version': 'v0.17.0'},\n 'schema_name': 'qcschema_input',\n 'schema_version': 1}\n--------------------------------------------------------------------------\n\nScratch directory: /home/ubuntu/pk/scratch/tmp__28lkx7_psi_scratch/\n\n*** tstart() called on bignimbus\n*** at Sat Apr 24 18:21:29 2021\n\n   => Loading Basis Set <=\n\n    Name: DEF2-TZVPD\n    Role: ORBITAL\n    Keyword: BASIS\n    atoms 1-5   entry C          line   134 file /home/ubuntu/pk/Applications/miniconda3/envs/psi4-1.4a2.dev923/share/psi4/basis/def2-tzvpd.gbs \n    atoms 6-10  entry N          line   171 file /home/ubuntu/pk/Applications/miniconda3/envs/psi4-1.4a2.dev923/share/psi4/basis/def2-tzvpd.gbs \n    atoms 11-15 entry H          line    14 file /home/ubuntu/pk/Applications/miniconda3/envs/psi4-1.4a2.dev923/share/psi4/basis/def2-tzvpd.gbs \n\n   => M06-2X-D3: Empirical Dispersion <=\n\n    Grimme's -D3 (zero-damping) Dispersion Correction\n    Grimme S.; Antony J.; Ehrlich S.; Krieg H. (2010), J. Chem. Phys., 132: 154104\n    Parametrisation from:    L. Goerigk, S. Grimme, Phys. Chem. Chem. Phys. 13, 6670-6688, 2011\n\n        s6 =       1.000000\n        s8 =       0.000000\n       sr6 =       1.619000\n    alpha6 =      14.000000\n       sr8 =       1.000000\n\n\n         ---------------------------------------------------------\n                                   SCF\n               by Justin Turney, Rob Parrish, Andy Simmonett\n                          and Daniel G. A. Smith\n                              RKS Reference\n                       16 Threads, 244140 MiB Core\n         ---------------------------------------------------------\n\n  ==> Geometry <==\n\n    Molecular point group: c1\n    Full point group: C1\n\n    Geometry (in Bohr), charge = 0, multiplicity = 1:\n\n       Center              X                  Y                   Z               Mass       \n    ------------   -----------------  -----------------  -----------------  -----------------\n         C           -2.600514844651     0.057862058845    -0.058347990912    12.000000000000\n         C           -0.181665404065    -1.051407176799     0.039917767612    12.000000000000\n         C            1.861128537555     0.634228527110     0.085271194623    12.000000000000\n         C           -0.646538030928     3.967705412417     0.032358863110    12.000000000000\n         C            3.108347780357    -3.362542228234     0.004012971228    12.000000000000\n         N           -2.785708004946     2.597653971460    -0.052678812535    14.003074004430\n         N            1.755303874529     3.164571809098     0.098499277501    14.003074004430\n         N            0.630916829882    -3.543955936278    -0.011104837775    14.003074004430\n         N            3.971952619691    -0.900229086762     0.087160920748    14.003074004430\n         N           -4.769920436677    -1.327307191116    -0.111260322425    14.003074004430\n         H           -0.909209962366     6.004830175661     0.019130780232     1.007825032230\n         H            4.406589628547    -4.938573816866    -0.071576073790     1.007825032230\n         H            5.787979426256    -0.316303713996    -0.047009634159     1.007825032230\n         H           -6.351621203685    -0.388113306763    -0.636604185302     1.007825032230\n         H           -4.641419060146    -3.160341532810    -0.640383637553     1.007825032230\n\n  Running in c1 symmetry.\n\n  Rotational constants: A =      0.07881  B =      0.05206  C =      0.03137 [cm^-1]\n  Rotational constants: A =   2362.65971  B =   1560.84141  C =    940.48329 [MHz]\n  Nuclear repulsion =  501.223593903137612\n\n  Charge       = 0\n  Multiplicity = 1\n  Electrons    = 70\n  Nalpha       = 35\n  Nbeta        = 35\n\n  ==> Algorithm <==\n\n  SCF Algorithm Type is DF.\n  DIIS enabled.\n  MOM disabled.\n  Fractional occupation disabled.\n  Guess Type is SAD.\n  Energy threshold   = 1.00e-06\n  Density threshold  = 1.00e-06\n  Integral threshold = 0.00e+00\n\n  ==> Primary Basis <==\n\n  Basis Set: DEF2-TZVPD\n    Blend: DEF2-TZVPD\n    Number of shells: 155\n    Number of basis function: 415\n    Number of Cartesian functions: 475\n    Spherical Harmonics?: true\n    Max angular momentum: 3\n\n  ==> DFT Potential <==\n\n   => Composite Functional: M06-2X-D3ZERO <= \n\n    Hybrid M06-2X Meta-GGA XC Functional\n\n    Y. Zhao and D. G. Truhlar,  Theor. Chem. Acc., 120, 215, 2008\n\n\n    Deriv               =              1\n    GGA                 =           TRUE\n    Meta                =           TRUE\n\n    Exchange Hybrid     =           TRUE\n    MP2 Hybrid          =          FALSE\n\n   => Exchange Functionals <=\n\n    1.0000   XC_HYB_MGGA_X_M06_2X\n\n   => Exact (HF) Exchange <=\n\n    0.5400               HF \n\n   => Correlation Functionals <=\n\n    1.0000   XC_MGGA_C_M06_2X\n\n   => LibXC Density Thresholds  <==\n\n    XC_MGGA_C_M06_2X:  1.00E-23 \n    XC_HYB_MGGA_X_M06_2X:  1.00E-20 \n\n   => Molecular Quadrature <=\n\n    Radial Scheme          =       TREUTLER\n    Pruning Scheme         =           NONE\n    Nuclear Scheme         =       TREUTLER\n\n    BS radius alpha        =              1\n    Pruning alpha          =              1\n    Radial Points          =             75\n    Spherical Points       =            302\n    Total Points           =         317510\n    Total Blocks           =           2380\n    Max Points             =            256\n    Max Functions          =            395\n    Weights Tolerance      =       1.00E-15\n\n   => Loading Basis Set <=\n\n    Name: (DEF2-TZVPD AUX)\n    Role: JKFIT\n    Keyword: DF_BASIS_SCF\n    atoms 1-5   entry C          line   198 file /home/ubuntu/pk/Applications/miniconda3/envs/psi4-1.4a2.dev923/share/psi4/basis/def2-universal-jkfit.gbs \n    atoms 6-10  entry N          line   258 file /home/ubuntu/pk/Applications/miniconda3/envs/psi4-1.4a2.dev923/share/psi4/basis/def2-universal-jkfit.gbs \n    atoms 11-15 entry H          line    18 file /home/ubuntu/pk/Applications/miniconda3/envs/psi4-1.4a2.dev923/share/psi4/basis/def2-universal-jkfit.gbs \n\n  ==> Integral Setup <==\n\n  DFHelper Memory: AOs need 1.102 GiB; user supplied 171.896 GiB. Using in-core AOs.\n\n  ==> MemDFJK: Density-Fitted J/K Matrices <==\n\n    J tasked:                   Yes\n    K tasked:                   Yes\n    wK tasked:                   No\n    OpenMP threads:              16\n    Memory [MiB]:            176021\n    Algorithm:                 Core\n    Schwarz Cutoff:           1E-12\n    Mask sparsity (%):       4.5034\n    Fitting Condition:        1E-10\n\n   => Auxiliary Basis Set <=\n\n  Basis Set: (DEF2-TZVPD AUX)\n    Blend: DEF2-UNIVERSAL-JKFIT\n    Number of shells: 280\n    Number of basis function: 850\n    Number of Cartesian functions: 1010\n    Spherical Harmonics?: true\n    Max angular momentum: 4\n\n  Cached 100.0% of DFT collocation blocks in 6.918 [GiB].\n\n  Minimum eigenvalue in the overlap matrix is 1.0227625614E-06.\n  Reciprocal condition number of the overlap matrix is 6.5465495355E-08.\n    Using symmetric orthogonalization.\n\n  ==> Pre-Iterations <==\n\n  SCF Guess: Superposition of Atomic Densities via on-the-fly atomic UHF (no occupation information).\n\n   -------------------------\n    Irrep   Nso     Nmo    \n   -------------------------\n     A        415     415 \n   -------------------------\n    Total     415     415\n   -------------------------\n\n  ==> Iterations <==\n\n                           Total Energy        Delta E     RMS |[F,P]|\n\n   @DF-RKS iter SAD:  -467.36553627428884   -4.67366e+02   0.00000e+00 \n   @DF-RKS iter   1:  -466.95817337107474    4.07363e-01   2.19422e-03 DIIS\n   @DF-RKS iter   2:  -467.02644806981550   -6.82747e-02   2.01326e-03 DIIS\n   @DF-RKS iter   3:  -467.31496451690077   -2.88516e-01   3.46605e-04 DIIS\n   @DF-RKS iter   4:  -467.32254021028814   -7.57569e-03   1.49146e-04 DIIS\n   @DF-RKS iter   5:  -467.32409111959413   -1.55091e-03   4.06160e-05 DIIS\n   @DF-RKS iter   6:  -467.32420723544755   -1.16116e-04   1.24929e-05 DIIS\n   @DF-RKS iter   7:  -467.32422013648625   -1.29010e-05   4.00465e-06 DIIS\n   @DF-RKS iter   8:  -467.32422131326206   -1.17678e-06   1.64983e-06 DIIS\n   @DF-RKS iter   9:  -467.32422159105209   -2.77790e-07   5.38919e-07 DIIS\n  Energy and wave function converged.\n\n\n  ==> Post-Iterations <==\n\n    Orbital Energies [Eh]\n    ---------------------\n\n    Doubly Occupied:                                                      \n\n       1A    -14.819404     2A    -14.772850     3A    -14.758852  \n       4A    -14.751133     5A    -14.744795     6A    -10.636044  \n       7A    -10.626440     8A    -10.620552     9A    -10.608100  \n      10A    -10.573171    11A     -1.153090    12A     -1.092275  \n      13A     -1.047064    14A     -0.996226    15A     -0.963141  \n      16A     -0.865545    17A     -0.756042    18A     -0.739279  \n      19A     -0.715523    20A     -0.661056    21A     -0.625969  \n      22A     -0.589267    23A     -0.570733    24A     -0.551277  \n      25A     -0.531451    26A     -0.511219    27A     -0.490729  \n      28A     -0.482014    29A     -0.433236    30A     -0.400257  \n      31A     -0.366109    32A     -0.362571    33A     -0.330325  \n      34A     -0.326406    35A     -0.281260  \n\n    Virtual:                                                              \n\n      36A     -0.001865    37A      0.008424    38A      0.024557  \n      39A      0.029194    40A      0.038361    41A      0.049413  \n      42A      0.056514    43A      0.064855    44A      0.075676  \n      45A      0.093067    46A      0.103258    47A      0.109273  \n      48A      0.119015    49A      0.127062    50A      0.139660  \n      51A      0.149725    52A      0.156797    53A      0.161255  \n      54A      0.165645    55A      0.174429    56A      0.185744  \n      57A      0.195394    58A      0.198349    59A      0.203423  \n      60A      0.208763    61A      0.215062    62A      0.225537  \n      63A      0.228155    64A      0.229958    65A      0.232402  \n      66A      0.235171    67A      0.244655    68A      0.255215  \n      69A      0.258180    70A      0.260526    71A      0.274383  \n      72A      0.276287    73A      0.280144    74A      0.285269  \n      75A      0.291157    76A      0.299302    77A      0.299626  \n      78A      0.311074    79A      0.314470    80A      0.318590  \n      81A      0.325898    82A      0.335977    83A      0.343563  \n      84A      0.355030    85A      0.360455    86A      0.361548  \n      87A      0.367925    88A      0.375614    89A      0.387069  \n      90A      0.390938    91A      0.393812    92A      0.406042  \n      93A      0.413046    94A      0.422704    95A      0.427982  \n      96A      0.435307    97A      0.437706    98A      0.444047  \n      99A      0.455642   100A      0.461339   101A      0.471693  \n     102A      0.474394   103A      0.482516   104A      0.490499  \n     105A      0.493018   106A      0.496944   107A      0.505882  \n     108A      0.516055   109A      0.520241   110A      0.526774  \n     111A      0.529952   112A      0.537571   113A      0.541617  \n     114A      0.547050   115A      0.551568   116A      0.564221  \n     117A      0.572879   118A      0.576383   119A      0.589350  \n     120A      0.593378   121A      0.599178   122A      0.604266  \n     123A      0.606787   124A      0.621818   125A      0.628671  \n     126A      0.644532   127A      0.655314   128A      0.662814  \n     129A      0.668038   130A      0.670286   131A      0.674727  \n     132A      0.684976   133A      0.690949   134A      0.699067  \n     135A      0.707527   136A      0.710238   137A      0.714943  \n     138A      0.726604   139A      0.734387   140A      0.742549  \n     141A      0.749627   142A      0.752859   143A      0.761768  \n     144A      0.769503   145A      0.777830   146A      0.780272  \n     147A      0.797067   148A      0.805215   149A      0.817299  \n     150A      0.821519   151A      0.824963   152A      0.833977  \n     153A      0.838880   154A      0.846272   155A      0.854658  \n     156A      0.863078   157A      0.897194   158A      0.906079  \n     159A      0.915334   160A      0.923214   161A      0.930366  \n     162A      0.945508   163A      0.961690   164A      0.964331  \n     165A      0.967965   166A      0.980710   167A      1.002500  \n     168A      1.007235   169A      1.008770   170A      1.030403  \n     171A      1.033180   172A      1.043918   173A      1.061758  \n     174A      1.073991   175A      1.084481   176A      1.095635  \n     177A      1.105015   178A      1.110912   179A      1.129375  \n     180A      1.133964   181A      1.142368   182A      1.157810  \n     183A      1.184761   184A      1.191714   185A      1.214469  \n     186A      1.280926   187A      1.295988   188A      1.307501  \n     189A      1.322972   190A      1.362415   191A      1.379659  \n     192A      1.396531   193A      1.419781   194A      1.425675  \n     195A      1.451677   196A      1.467794   197A      1.479743  \n     198A      1.517896   199A      1.521957   200A      1.536167  \n     201A      1.555660   202A      1.576679   203A      1.601042  \n     204A      1.619549   205A      1.647995   206A      1.664236  \n     207A      1.677161   208A      1.703339   209A      1.718891  \n     210A      1.743280   211A      1.757140   212A      1.775203  \n     213A      1.791113   214A      1.798512   215A      1.810245  \n     216A      1.823453   217A      1.840686   218A      1.859168  \n     219A      1.875680   220A      1.881728   221A      1.892525  \n     222A      1.907277   223A      1.923288   224A      1.942914  \n     225A      1.943614   226A      1.959544   227A      1.967547  \n     228A      1.990781   229A      2.004368   230A      2.025919  \n     231A      2.030511   232A      2.041226   233A      2.054928  \n     234A      2.084720   235A      2.136735   236A      2.164304  \n     237A      2.172217   238A      2.202363   239A      2.221693  \n     240A      2.246211   241A      2.254405   242A      2.266918  \n     243A      2.280430   244A      2.299186   245A      2.338888  \n     246A      2.359980   247A      2.364696   248A      2.395823  \n     249A      2.399905   250A      2.453173   251A      2.457815  \n     252A      2.480099   253A      2.490867   254A      2.526828  \n     255A      2.538594   256A      2.565522   257A      2.579274  \n     258A      2.612957   259A      2.620926   260A      2.639472  \n     261A      2.644822   262A      2.660718   263A      2.673635  \n     264A      2.711644   265A      2.745508   266A      2.762826  \n     267A      2.785396   268A      2.797297   269A      2.816527  \n     270A      2.856915   271A      2.870769   272A      2.925524  \n     273A      2.943999   274A      2.965647   275A      2.969721  \n     276A      2.983357   277A      3.003362   278A      3.008547  \n     279A      3.031798   280A      3.041530   281A      3.055143  \n     282A      3.069857   283A      3.072187   284A      3.075387  \n     285A      3.091452   286A      3.119341   287A      3.122920  \n     288A      3.133760   289A      3.164333   290A      3.172504  \n     291A      3.182399   292A      3.199984   293A      3.204565  \n     294A      3.252622   295A      3.264015   296A      3.273525  \n     297A      3.304836   298A      3.308386   299A      3.322218  \n     300A      3.329752   301A      3.334031   302A      3.352959  \n     303A      3.358416   304A      3.381839   305A      3.412147  \n     306A      3.424553   307A      3.431330   308A      3.450281  \n     309A      3.472962   310A      3.482628   311A      3.495132  \n     312A      3.514904   313A      3.525624   314A      3.563510  \n     315A      3.586023   316A      3.605589   317A      3.615118  \n     318A      3.641594   319A      3.669884   320A      3.711496  \n     321A      3.730338   322A      3.766961   323A      3.831536  \n     324A      3.860137   325A      3.894825   326A      3.925999  \n     327A      3.959816   328A      3.979638   329A      4.018091  \n     330A      4.028184   331A      4.050702   332A      4.062356  \n     333A      4.100487   334A      4.145348   335A      4.156470  \n     336A      4.201100   337A      4.226030   338A      4.262041  \n     339A      4.282206   340A      4.331908   341A      4.363257  \n     342A      4.390994   343A      4.423588   344A      4.451914  \n     345A      4.508598   346A      4.531335   347A      4.558672  \n     348A      4.596567   349A      4.628979   350A      4.693667  \n     351A      4.710275   352A      4.744556   353A      4.786002  \n     354A      4.789347   355A      4.820730   356A      4.837160  \n     357A      4.854086   358A      4.872863   359A      4.883389  \n     360A      4.919386   361A      4.938025   362A      4.960655  \n     363A      4.973307   364A      5.029460   365A      5.043685  \n     366A      5.068982   367A      5.079949   368A      5.097024  \n     369A      5.134481   370A      5.139024   371A      5.155141  \n     372A      5.173957   373A      5.193812   374A      5.211197  \n     375A      5.225555   376A      5.252348   377A      5.265106  \n     378A      5.298084   379A      5.317479   380A      5.337551  \n     381A      5.351240   382A      5.375603   383A      5.396658  \n     384A      5.434525   385A      5.444637   386A      5.486064  \n     387A      5.502562   388A      5.516716   389A      5.523100  \n     390A      5.533369   391A      5.546981   392A      5.627108  \n     393A      5.643069   394A      5.677992   395A      5.729169  \n     396A      5.750670   397A      5.802658   398A      5.836278  \n     399A      5.920848   400A      5.946653   401A      5.971993  \n     402A      6.105350   403A      6.184733   404A      6.233345  \n     405A      6.531101   406A     23.015324   407A     23.149713  \n     408A     23.305127   409A     23.331610   410A     23.599283  \n     411A     32.494420   412A     32.706728   413A     32.785925  \n     414A     32.850599   415A     33.033280  \n\n    Final Occupation by Irrep:\n              A \n    DOCC [    35 ]\n\n  @DF-RKS Final Energy:  -467.32422159105209\n\n   => Energetics <=\n\n    Nuclear Repulsion Energy =            501.2235939031376120\n    One-Electron Energy =               -1626.2717230102821304\n    Two-Electron Energy =                 688.3491430321921598\n    DFT Exchange-Correlation Energy =     -30.6249011760996517\n    Empirical Dispersion Energy =          -0.0003343400000000\n    VV10 Nonlocal Energy =                  0.0000000000000000\n    Total Energy =                       -467.3242215910520940\n\nComputation Completed\n\n\nProperties will be evaluated at   0.000000,   0.000000,   0.000000 [a0]\n\nProperties computed using the SCF density matrix\n\n  Nuclear Dipole Moment: [e a0]\n     X:    -0.8453      Y:    -1.3883      Z:    -0.6829\n\n  Electronic Dipole Moment: [e a0]\n     X:     1.4693      Y:     0.6552      Z:     0.3202\n\n  Dipole Moment: [e a0]\n     X:     0.6240      Y:    -0.7331      Z:    -0.3627     Total:     1.0288\n\n  Dipole Moment: [D]\n     X:     1.5860      Y:    -1.8633      Z:    -0.9219     Total:     2.6148\n\n\n*** tstop() called on bignimbus at Sat Apr 24 18:21:52 2021\nModule time:\n\tuser time   =     281.80 seconds =       4.70 minutes\n\tsystem time =      12.42 seconds =       0.21 minutes\n\ttotal time  =         23 seconds =       0.38 minutes\nTotal time:\n\tuser time   =     281.80 seconds =       4.70 minutes\n\tsystem time =      12.42 seconds =       0.21 minutes\n\ttotal time  =         23 seconds =       0.38 minutes\n\n    Psi4 stopped on: Saturday, 24 April 2021 06:21PM\n    Psi4 wall time for execution: 0:00:22.55\n\n*** Psi4 exiting successfully. Buy a developer a beer!\n",
 "stderr": null,
 "success": true,
 "error": null,
 "tag": "m062x-d3 def2-tzvpd c3a_a"
}