{
 "id": null,
 "schema_name": "qcschema_output",
 "schema_version": 1,
 "molecule": {
  "validated": true,
  "symbols": [
   "N",
   "C",
   "N",
   "C",
   "C",
   "O",
   "N",
   "C",
   "N",
   "N",
   "C",
   "H",
   "H",
   "H",
   "H",
   "H",
   "N",
   "C",
   "N",
   "C",
   "C",
   "O",
   "N",
   "C",
   "N",
   "N",
   "C",
   "H",
   "H",
   "H",
   "H",
   "H"
  ],
  "geometry": [
   0.03907648617206276,
   4.630398892669814,
   -6.480050255281716,
   1.8721108278661558,
   3.46821732551325,
   -7.753725663840304,
   2.197143721444903,
   1.0947213119382198,
   -7.086652341553679,
   0.41702171126362814,
   0.686540468839328,
   -5.213933751224976,
   -0.13855776962097316,
   -1.494203479939004,
   -3.8155364183861793,
   0.8667765291225913,
   -3.623924823329977,
   -3.940258342666402,
   -2.120880475226234,
   -1.0274411269509216,
   -2.0788781090904447,
   -3.2830620423828,
   1.2950322812367492,
   -1.714160966877065,
   -4.8704319877673745,
   1.4613281802770384,
   0.13399118382067793,
   -2.82196886777109,
   3.298141974222047,
   -3.0766535033321727,
   -0.9171249333095992,
   2.854056334739458,
   -4.783076194620582,
   -0.6657913586237085,
   6.385954463220139,
   -6.750281091222197,
   -2.6065400894688984,
   -2.5203247660626054,
   -0.9204759941847892,
   2.943585541000744,
   4.403631757614879,
   -9.222042863321027,
   -5.25782584348623,
   0.01946714655271604,
   1.358533713117348,
   -5.798287515367168,
   3.1148385400526384,
   0.33808160537013004,
   0.30741759598707447,
   3.162081693189084,
   3.441011903371882,
   1.9968327521463718,
   3.24333991658377,
   1.528609064408551,
   2.883114304986093,
   1.0531473371781466,
   1.0202727366603972,
   1.8003012350987597,
   -0.5663479523392116,
   2.7380337847015657,
   2.1480108421829986,
   -3.283774120747569,
   3.129207092671331,
   3.518062283139925,
   -4.786106390486541,
   1.8026193525999423,
   0.7515032354696634,
   -4.1624967690854575,
   5.198457200047651,
   -0.8339769837894528,
   -2.645046690342823,
   6.617641520266497,
   -1.9867099203187286,
   -3.8166768881266773,
   8.54516216823347,
   -1.1797968647482384,
   -0.18840272724764634,
   6.1678867024075235,
   0.20726211133780886,
   0.6940993733411591,
   4.240366054440537,
   -0.7054756072583213,
   4.603942726913407,
   4.181784544551343,
   0.798746388606109,
   -6.095686595428816,
   5.531048998128236,
   2.420131404248926,
   4.970549595252223,
   0.519495313414078,
   -1.8714366266658025,
   -5.729079727089997,
   8.84751834830673,
   -3.266054507253679,
   -2.7924453281285326,
   9.520260848969722
  ],
  "name": "C10H10N10O2",
  "molecular_charge": 0.0,
  "molecular_multiplicity": 1,
  "masses": [
   14.00307400443,
   12.0,
   14.00307400443,
   12.0,
   12.0,
   15.99491461957,
   14.00307400443,
   12.0,
   14.00307400443,
   14.00307400443,
   12.0,
   1.00782503223,
   1.00782503223,
   1.00782503223,
   1.00782503223,
   1.00782503223,
   14.00307400443,
   12.0,
   14.00307400443,
   12.0,
   12.0,
   15.99491461957,
   14.00307400443,
   12.0,
   14.00307400443,
   14.00307400443,
   12.0,
   1.00782503223,
   1.00782503223,
   1.00782503223,
   1.00782503223,
   1.00782503223
  ],
  "real": [
   true,
   true,
   true,
   true,
   true,
   true,
   true,
   true,
   true,
   true,
   true,
   true,
   true,
   true,
   true,
   true,
   true,
   true,
   true,
   true,
   true,
   true,
   true,
   true,
   true,
   true,
   true,
   true,
   true,
   true,
   true,
   true
  ],
  "atom_labels": [
   "",
   "",
   "",
   "",
   "",
   "",
   "",
   "",
   "",
   "",
   "",
   "",
   "",
   "",
   "",
   "",
   "",
   "",
   "",
   "",
   "",
   "",
   "",
   "",
   "",
   "",
   "",
   "",
   "",
   "",
   "",
   ""
  ],
  "atomic_numbers": [
   7,
   6,
   7,
   6,
   6,
   8,
   7,
   6,
   7,
   7,
   6,
   1,
   1,
   1,
   1,
   1,
   7,
   6,
   7,
   6,
   6,
   8,
   7,
   6,
   7,
   7,
   6,
   1,
   1,
   1,
   1,
   1
  ],
  "mass_numbers": [
   14,
   12,
   14,
   12,
   12,
   16,
   14,
   12,
   14,
   14,
   12,
   1,
   1,
   1,
   1,
   1,
   14,
   12,
   14,
   12,
   12,
   16,
   14,
   12,
   14,
   14,
   12,
   1,
   1,
   1,
   1,
   1
  ],
  "fragments": [
   [
    0,
    1,
    2,
    3,
    4,
    5,
    6,
    7,
    8,
    9,
    10,
    11,
    12,
    13,
    14,
    15,
    16,
    17,
    18,
    19,
    20,
    21,
    22,
    23,
    24,
    25,
    26,
    27,
    28,
    29,
    30,
    31
   ]
  ],
  "fragment_charges": [
   0.0
  ],
  "fragment_multiplicities": [
   1
  ],
  "fix_com": false,
  "fix_orientation": false,
  "provenance": {
   "creator": "QCElemental",
   "version": "v0.19.0",
   "routine": "qcelemental.molparse.from_string"
  }
 },
 "driver": "energy",
 "model": {
  "method": "b97m-v",
  "basis": "pcseg-1"
 },
 "keywords": {},
 "protocols": {},
 "extras": {
  "qcvars": {
   "CURRENT DIPOLE X": -9.098295923363926,
   "CURRENT DIPOLE Y": 4.561164372732693,
   "CURRENT DIPOLE Z": 8.74500944566228,
   "CURRENT ENERGY": -1084.7181524269274,
   "CURRENT REFERENCE ENERGY": -1084.7181524269274,
   "DFT FUNCTIONAL TOTAL ENERGY": -1084.7181524269274,
   "DFT TOTAL ENERGY": -1084.7181524269274,
   "DFT VV10 ENERGY": 0.58455201094773,
   "DFT XC ENERGY": -144.99685288037438,
   "NUCLEAR REPULSION ENERGY": 1842.1167887086447,
   "ONE-ELECTRON ENERGY": -5137.46951116766,
   "PCM POLARIZATION ENERGY": 0.0,
   "PE ENERGY": 0.0,
   "SCF DIPOLE X": -9.098295923363926,
   "SCF DIPOLE Y": 4.561164372732693,
   "SCF DIPOLE Z": 8.74500944566228,
   "SCF ITERATION ENERGY": -1084.7181524269274,
   "SCF ITERATIONS": 12.0,
   "SCF TOTAL ENERGY": -1084.7181524269274,
   "TWO-ELECTRON ENERGY": 2355.0468709015145,
   "XC GRID RADIAL POINTS": 75.0,
   "XC GRID SPHERICAL POINTS": 302.0,
   "XC GRID TOTAL POINTS": 655231.0,
   "CURRENT DIPOLE": [
    -3.5795450472963557,
    1.7945001435261447,
    3.440551451991738
   ],
   "SCF DIPOLE": [
    -3.5795450472963557,
    1.7945001435261447,
    3.440551451991738
   ]
  }
 },
 "provenance": {
  "creator": "Psi4",
  "version": "1.4a2.dev923",
  "routine": "psi4.schema_runner.run_qcschema",
  "username": "ubuntu",
  "cpu": "AMD EPYC Processor (with IBPB)",
  "nthreads": 16,
  "hostname": "bignimbus",
  "qcengine_version": "v0.17.0",
  "wall_time": 129.7349328994751,
  "memory": 256.0
 },
 "properties": {
  "calcinfo_nbasis": 358,
  "calcinfo_nmo": 358,
  "calcinfo_nalpha": 78,
  "calcinfo_nbeta": 78,
  "calcinfo_natom": 32,
  "nuclear_repulsion_energy": 1842.1167887086447,
  "return_energy": -1084.7181524269274,
  "scf_one_electron_energy": -5137.46951116766,
  "scf_two_electron_energy": 2355.0468709015145,
  "scf_vv10_energy": 0.58455201094773,
  "scf_xc_energy": -144.99685288037438,
  "scf_dipole_moment": [
   -3.5795450472963557,
   1.7945001435261447,
   3.440551451991738
  ],
  "scf_total_energy": -1084.7181524269274,
  "scf_iterations": 12
 },
 "wavefunction": null,
 "return_result": -1084.7181524269274,
 "stdout": "\n    -----------------------------------------------------------------------\n          Psi4: An Open-Source Ab Initio Electronic Structure Package\n                               Psi4 1.4a2.dev923 \n\n                         Git: Rev {master} 5de566e \n\n\n    D. G. A. Smith, L. A. Burns, A. C. Simmonett, R. M. Parrish,\n    M. C. Schieber, R. Galvelis, P. Kraus, H. Kruse, R. Di Remigio,\n    A. Alenaizan, A. M. James, S. Lehtola, J. P. Misiewicz, M. Scheurer,\n    R. A. Shaw, J. B. Schriber, Y. Xie, Z. L. Glick, D. A. Sirianni,\n    J. S. O'Brien, J. M. Waldrop, A. Kumar, E. G. Hohenstein,\n    B. P. Pritchard, B. R. Brooks, H. F. Schaefer III, A. Yu. Sokolov,\n    K. Patkowski, A. E. DePrince III, U. Bozkaya, R. A. King,\n    F. A. Evangelista, J. M. Turney, T. D. Crawford, C. D. Sherrill,\n    J. Chem. Phys. 152(18) 184108 (2020). https://doi.org/10.1063/5.0006002\n\n                            Additional Code Authors\n    E. T. Seidl, C. L. Janssen, E. F. Valeev, M. L. Leininger,\n    J. F. Gonthier, R. M. Richard, H. R. McAlexander, M. Saitow, X. Wang,\n    P. Verma, and M. H. Lechner\n\n             Previous Authors, Complete List of Code Contributors,\n                       and Citations for Specific Modules\n    https://github.com/psi4/psi4/blob/master/codemeta.json\n    https://github.com/psi4/psi4/graphs/contributors\n    http://psicode.org/psi4manual/master/introduction.html#citing-psifour\n\n    -----------------------------------------------------------------------\n\n\n    Psi4 started on: Sunday, 25 April 2021 10:49AM\n\n    Process ID: 4014445\n    Host:       bignimbus\n    PSIDATADIR: /home/ubuntu/pk/Applications/miniconda3/envs/psi4-1.4a2.dev923/share/psi4\n    Memory:     238.4 GiB\n    Threads:    16\n    \n  ==> Input QCSchema <==\n\n--------------------------------------------------------------------------\n{'driver': 'energy',\n 'extras': {},\n 'id': None,\n 'keywords': {},\n 'model': {'basis': 'pcseg-1', 'method': 'b97m-v'},\n 'molecule': {'atom_labels': ['', '', '', '', '', '', '', '', '', '', '', '', '', '', '', '', '', '', '', '', '', '',\n                              '', '', '', '', '', '', '', '', '', ''],\n              'atomic_numbers': [7, 6, 7, 6, 6, 8, 7, 6, 7, 7, 6, 1, 1, 1, 1, 1, 7, 6, 7, 6, 6, 8, 7, 6, 7, 7, 6, 1, 1,\n                                 1, 1, 1],\n              'fix_com': False,\n              'fix_orientation': False,\n              'fragment_charges': [0.0],\n              'fragment_multiplicities': [1],\n              'fragments': [[0, 1, 2, 3, 4, 5, 6, 7, 8, 9, 10, 11, 12, 13, 14, 15, 16, 17, 18, 19, 20, 21, 22, 23, 24,\n                             25, 26, 27, 28, 29, 30, 31]],\n              'geometry': [0.039076486172067604, 4.630398892669815, -6.480050255281711, 1.8721108278661607,\n                           3.468217325513251, -7.7537256638402985, 2.197143721444908, 1.0947213119382209,\n                           -7.086652341553673, 0.41702171126363297, 0.6865404688393291, -5.213933751224971,\n                           -0.13855776962096833, -1.494203479939003, -3.815536418386174, 0.8667765291225962,\n                           -3.6239248233299755, -3.9402583426663966, -2.120880475226229, -1.0274411269509205,\n                           -2.0788781090904394, -3.283062042382795, 1.2950322812367503, -1.7141609668770599,\n                           -4.87043198776737, 1.4613281802770395, 0.1339911838206831, -2.8219688677710852,\n                           3.298141974222048, -3.0766535033321674, -0.9171249333095943, 2.854056334739459,\n                           -4.783076194620577, -0.6657913586237036, 6.3859544632201395, -6.750281091222192,\n                           -2.6065400894688935, -2.520324766062604, -0.920475994184784, 2.9435855410007488,\n                           4.40363175761488, -9.222042863321022, -5.257825843486225, 0.019467146552717193,\n                           1.3585337131173532, -5.798287515367163, 3.1148385400526397, 0.3380816053701352,\n                           0.3074175959870793, 3.1620816931890854, 3.441011903371887, 1.9968327521463767,\n                           3.2433399165837713, 1.5286090644085562, 2.8831143049860977, 1.0531473371781477,\n                           1.0202727366604023, 1.8003012350987646, -0.5663479523392105, 2.738033784701571,\n                           2.1480108421830035, -3.2837741207475677, 3.1292070926713365, 3.5180622831399297,\n                           -4.78610639048654, 1.8026193525999474, 0.7515032354696682, -4.162496769085457,\n                           5.198457200047656, -0.833976983789448, -2.645046690342822, 6.617641520266503,\n                           -1.9867099203187237, -3.816676888126676, 8.545162168233475, -1.1797968647482335,\n                           -0.18840272724764517, 6.167886702407529, 0.2072621113378137, 0.6940993733411602,\n                           4.240366054440543, -0.7054756072583164, 4.603942726913408, 4.181784544551348,\n                           0.7987463886061139, -6.095686595428815, 5.531048998128242, 2.420131404248931,\n                           4.970549595252224, 0.5194953134140832, -1.8714366266657976, -5.729079727089996,\n                           8.847518348306735, -3.266054507253674, -2.7924453281285313, 9.520260848969727],\n              'mass_numbers': [14, 12, 14, 12, 12, 16, 14, 12, 14, 14, 12, 1, 1, 1, 1, 1, 14, 12, 14, 12, 12, 16, 14,\n                               12, 14, 14, 12, 1, 1, 1, 1, 1],\n              'masses': [14.00307400443, 12.0, 14.00307400443, 12.0, 12.0, 15.99491461957, 14.00307400443, 12.0,\n                         14.00307400443, 14.00307400443, 12.0, 1.00782503223, 1.00782503223, 1.00782503223,\n                         1.00782503223, 1.00782503223, 14.00307400443, 12.0, 14.00307400443, 12.0, 12.0, 15.99491461957,\n                         14.00307400443, 12.0, 14.00307400443, 14.00307400443, 12.0, 1.00782503223, 1.00782503223,\n                         1.00782503223, 1.00782503223, 1.00782503223],\n              'molecular_charge': 0.0,\n              'molecular_multiplicity': 1,\n              'name': 'C10H10N10O2',\n              'provenance': {'creator': 'QCElemental',\n                             'routine': 'qcelemental.molparse.from_string',\n                             'version': 'v0.19.0'},\n              'real': [True, True, True, True, True, True, True, True, True, True, True, True, True, True, True, True,\n                       True, True, True, True, True, True, True, True, True, True, True, True, True, True, True, True],\n              'symbols': ['N', 'C', 'N', 'C', 'C', 'O', 'N', 'C', 'N', 'N', 'C', 'H', 'H', 'H', 'H', 'H', 'N', 'C', 'N',\n                          'C', 'C', 'O', 'N', 'C', 'N', 'N', 'C', 'H', 'H', 'H', 'H', 'H'],\n              'validated': True},\n 'protocols': {},\n 'provenance': {'creator': 'QCElemental', 'routine': 'qcelemental.models.results', 'version': 'v0.17.0'},\n 'schema_name': 'qcschema_input',\n 'schema_version': 1}\n--------------------------------------------------------------------------\n\nScratch directory: /home/ubuntu/pk/scratch/tmp26l2yuvk_psi_scratch/\n\n*** tstart() called on bignimbus\n*** at Sun Apr 25 10:49:35 2021\n\n   => Loading Basis Set <=\n\n    Name: PCSEG-1\n    Role: ORBITAL\n    Keyword: BASIS\n    atoms 1, 3, 7, 9-10, 17, 19, 23, 25-26 entry N          line   111 file /home/ubuntu/pk/Applications/miniconda3/envs/psi4-1.4a2.dev923/share/psi4/basis/pcseg-1.gbs \n    atoms 2, 4-5, 8, 11, 18, 20-21, 24, 27 entry C          line    90 file /home/ubuntu/pk/Applications/miniconda3/envs/psi4-1.4a2.dev923/share/psi4/basis/pcseg-1.gbs \n    atoms 6, 22                            entry O          line   132 file /home/ubuntu/pk/Applications/miniconda3/envs/psi4-1.4a2.dev923/share/psi4/basis/pcseg-1.gbs \n    atoms 12-16, 28-32                     entry H          line    13 file /home/ubuntu/pk/Applications/miniconda3/envs/psi4-1.4a2.dev923/share/psi4/basis/pcseg-1.gbs \n\n\n         ---------------------------------------------------------\n                                   SCF\n               by Justin Turney, Rob Parrish, Andy Simmonett\n                          and Daniel G. A. Smith\n                              RKS Reference\n                       16 Threads, 244140 MiB Core\n         ---------------------------------------------------------\n\n  ==> Geometry <==\n\n    Molecular point group: c1\n    Full point group: C1\n\n    Geometry (in Bohr), charge = 0, multiplicity = 1:\n\n       Center              X                  Y                   Z               Mass       \n    ------------   -----------------  -----------------  -----------------  -----------------\n         N            0.039076486172     4.630398892670    -6.480050255282    14.003074004430\n         C            1.872110827866     3.468217325513    -7.753725663840    12.000000000000\n         N            2.197143721445     1.094721311938    -7.086652341554    14.003074004430\n         C            0.417021711264     0.686540468839    -5.213933751225    12.000000000000\n         C           -0.138557769621    -1.494203479939    -3.815536418386    12.000000000000\n         O            0.866776529123    -3.623924823330    -3.940258342666    15.994914619570\n         N           -2.120880475226    -1.027441126951    -2.078878109090    14.003074004430\n         C           -3.283062042383     1.295032281237    -1.714160966877    12.000000000000\n         N           -4.870431987767     1.461328180277     0.133991183821    14.003074004430\n         N           -2.821968867771     3.298141974222    -3.076653503332    14.003074004430\n         C           -0.917124933310     2.854056334739    -4.783076194621    12.000000000000\n         H           -0.665791358624     6.385954463220    -6.750281091222     1.007825032230\n         H           -2.606540089469    -2.520324766063    -0.920475994185     1.007825032230\n         H            2.943585541001     4.403631757615    -9.222042863321     1.007825032230\n         H           -5.257825843486     0.019467146553     1.358533713117     1.007825032230\n         H           -5.798287515367     3.114838540053     0.338081605370     1.007825032230\n         N            0.307417595987     3.162081693189     3.441011903372    14.003074004430\n         C            1.996832752146     3.243339916584     1.528609064409    12.000000000000\n         N            2.883114304986     1.053147337178     1.020272736660    14.003074004430\n         C            1.800301235099    -0.566347952339     2.738033784702    12.000000000000\n         C            2.148010842183    -3.283774120748     3.129207092671    12.000000000000\n         O            3.518062283140    -4.786106390487     1.802619352600    15.994914619570\n         N            0.751503235470    -4.162496769085     5.198457200048    14.003074004430\n         C           -0.833976983789    -2.645046690343     6.617641520266    12.000000000000\n         N           -1.986709920319    -3.816676888127     8.545162168233    14.003074004430\n         N           -1.179796864748    -0.188402727248     6.167886702408    14.003074004430\n         C            0.207262111338     0.694099373341     4.240366054441    12.000000000000\n         H           -0.705475607258     4.603942726913     4.181784544551     1.007825032230\n         H            0.798746388606    -6.095686595429     5.531048998128     1.007825032230\n         H            2.420131404249     4.970549595252     0.519495313414     1.007825032230\n         H           -1.871436626666    -5.729079727090     8.847518348307     1.007825032230\n         H           -3.266054507254    -2.792445328129     9.520260848970     1.007825032230\n\n  Running in c1 symmetry.\n\n  Rotational constants: A =      0.01937  B =      0.00689  C =      0.00628 [cm^-1]\n  Rotational constants: A =    580.66746  B =    206.51883  C =    188.19690 [MHz]\n  Nuclear repulsion = 1842.116788708644663\n\n  Charge       = 0\n  Multiplicity = 1\n  Electrons    = 156\n  Nalpha       = 78\n  Nbeta        = 78\n\n  ==> Algorithm <==\n\n  SCF Algorithm Type is DF.\n  DIIS enabled.\n  MOM disabled.\n  Fractional occupation disabled.\n  Guess Type is SAD.\n  Energy threshold   = 1.00e-06\n  Density threshold  = 1.00e-06\n  Integral threshold = 0.00e+00\n\n  ==> Primary Basis <==\n\n  Basis Set: PCSEG-1\n    Blend: PCSEG-1\n    Number of shells: 162\n    Number of basis function: 358\n    Number of Cartesian functions: 380\n    Spherical Harmonics?: true\n    Max angular momentum: 2\n\n  ==> DFT Potential <==\n\n   => Composite Functional: B97M-V <= \n\n    B97M-V GGA Exchange-Correlation Functional\n\n    N. Mardirossian and M. Head-Gordon, J. Chem. Phys. 142, 074111 (2015)\n\n    Deriv               =              1\n    GGA                 =           TRUE\n    Meta                =           TRUE\n\n    Exchange Hybrid     =          FALSE\n    MP2 Hybrid          =          FALSE\n\n   => Exchange-Correlation Functionals <=\n\n    1.0000   B97M-V exchange-correlation functional\n\n   => LibXC Density Thresholds  <==\n\n    XC_MGGA_XC_B97M_V:  1.00E-23 \n\n   => VV10 Non-Local Parameters <=\n\n    VV10 B              =     6.0000E+00\n    VV10 C              =     1.0000E-02\n\n   => Molecular Quadrature <=\n\n    Radial Scheme          =       TREUTLER\n    Pruning Scheme         =           NONE\n    Nuclear Scheme         =       TREUTLER\n\n    BS radius alpha        =              1\n    Pruning alpha          =              1\n    Radial Points          =             75\n    Spherical Points       =            302\n    Total Points           =         655231\n    Total Blocks           =           4747\n    Max Points             =            256\n    Max Functions          =            310\n    Weights Tolerance      =       1.00E-15\n\n   => Loading Basis Set <=\n\n    Name: (PCSEG-1 AUX)\n    Role: JKFIT\n    Keyword: DF_BASIS_SCF\n    atoms 1, 3, 7, 9-10, 17, 19, 23, 25-26 entry N          line   258 file /home/ubuntu/pk/Applications/miniconda3/envs/psi4-1.4a2.dev923/share/psi4/basis/def2-universal-jkfit.gbs \n    atoms 2, 4-5, 8, 11, 18, 20-21, 24, 27 entry C          line   198 file /home/ubuntu/pk/Applications/miniconda3/envs/psi4-1.4a2.dev923/share/psi4/basis/def2-universal-jkfit.gbs \n    atoms 6, 22                            entry O          line   318 file /home/ubuntu/pk/Applications/miniconda3/envs/psi4-1.4a2.dev923/share/psi4/basis/def2-universal-jkfit.gbs \n    atoms 12-16, 28-32                     entry H          line    18 file /home/ubuntu/pk/Applications/miniconda3/envs/psi4-1.4a2.dev923/share/psi4/basis/def2-universal-jkfit.gbs \n\n  ==> Integral Setup <==\n\n  DFHelper Memory: AOs need 1.415 GiB; user supplied 170.866 GiB. Using in-core AOs.\n\n  ==> MemDFJK: Density-Fitted J/K Matrices <==\n\n    J tasked:                   Yes\n    K tasked:                    No\n    wK tasked:                   No\n    OpenMP threads:              16\n    Memory [MiB]:            174966\n    Algorithm:                 Core\n    Schwarz Cutoff:           1E-12\n    Mask sparsity (%):      23.8148\n    Fitting Condition:        1E-10\n\n   => Auxiliary Basis Set <=\n\n  Basis Set: (PCSEG-1 AUX)\n    Blend: DEF2-UNIVERSAL-JKFIT\n    Number of shells: 610\n    Number of basis function: 1854\n    Number of Cartesian functions: 2206\n    Spherical Harmonics?: true\n    Max angular momentum: 4\n\n  Cached 100.0% of DFT collocation blocks in 7.948 [GiB].\n\n  Minimum eigenvalue in the overlap matrix is 8.5556790696E-04.\n  Reciprocal condition number of the overlap matrix is 1.3646205819E-04.\n    Using symmetric orthogonalization.\n\n  ==> Pre-Iterations <==\n\n  SCF Guess: Superposition of Atomic Densities via on-the-fly atomic UHF (no occupation information).\n\n   -------------------------\n    Irrep   Nso     Nmo    \n   -------------------------\n     A        358     358 \n   -------------------------\n    Total     358     358\n   -------------------------\n\n  ==> Iterations <==\n\n                           Total Energy        Delta E     RMS |[F,P]|\n\n   @DF-RKS iter SAD: -1084.72657094861574   -1.08473e+03   0.00000e+00 \n   @DF-RKS iter   1: -1083.46310414780828    1.26347e+00   4.51836e-03 DIIS\n   @DF-RKS iter   2: -1078.89494199463661    4.56816e+00   8.43278e-03 DIIS\n   @DF-RKS iter   3: -1081.81399108130427   -2.91905e+00   5.09257e-03 DIIS\n   @DF-RKS iter   4: -1084.60288030627885   -2.78889e+00   1.36340e-03 DIIS\n   @DF-RKS iter   5: -1084.64655353001717   -4.36732e-02   1.11981e-03 DIIS\n   @DF-RKS iter   6: -1084.71067690716609   -6.41234e-02   3.60692e-04 DIIS\n   @DF-RKS iter   7: -1084.71748318423101   -6.80628e-03   1.07700e-04 DIIS\n   @DF-RKS iter   8: -1084.71800639240678   -5.23208e-04   4.90531e-05 DIIS\n   @DF-RKS iter   9: -1084.71813214054714   -1.25748e-04   1.85860e-05 DIIS\n   @DF-RKS iter  10: -1084.71814839210265   -1.62516e-05   8.35359e-06 DIIS\n   @DF-RKS iter  11: -1084.71815220493363   -3.81283e-06   2.12624e-06 DIIS\n   @DF-RKS iter  12: -1084.71815242692742   -2.21994e-07   9.99822e-07 DIIS\n  Energy and wave function converged.\n\n\n  ==> Post-Iterations <==\n\n    Orbital Energies [Eh]\n    ---------------------\n\n    Doubly Occupied:                                                      \n\n       1A    -19.094466     2A    -19.076271     3A    -14.402074  \n       4A    -14.390341     5A    -14.387350     6A    -14.378533  \n       7A    -14.373777     8A    -14.372181     9A    -14.335149  \n      10A    -14.313172    11A    -14.305214    12A    -14.293156  \n      13A    -10.329758    14A    -10.302461    15A    -10.288760  \n      16A    -10.263364    17A    -10.248753    18A    -10.236595  \n      19A    -10.235384    20A    -10.222252    21A    -10.191296  \n      22A    -10.172178    23A     -1.049253    24A     -1.033053  \n      25A     -1.025352    26A     -1.007499    27A     -0.986830  \n      28A     -0.985632    29A     -0.925555    30A     -0.911801  \n      31A     -0.910890    32A     -0.889196    33A     -0.875421  \n      34A     -0.857873    35A     -0.758753    36A     -0.741821  \n      37A     -0.665666    38A     -0.658449    39A     -0.651300  \n      40A     -0.637341    41A     -0.606876    42A     -0.595595  \n      43A     -0.590690    44A     -0.578009    45A     -0.542807  \n      46A     -0.540248    47A     -0.526985    48A     -0.518585  \n      49A     -0.513141    50A     -0.494908    51A     -0.475573  \n      52A     -0.467044    53A     -0.460468    54A     -0.447353  \n      55A     -0.446574    56A     -0.428911    57A     -0.419407  \n      58A     -0.414084    59A     -0.401449    60A     -0.391617  \n      61A     -0.376263    62A     -0.366214    63A     -0.363881  \n      64A     -0.350828    65A     -0.308674    66A     -0.304366  \n      67A     -0.290986    68A     -0.284593    69A     -0.276494  \n      70A     -0.262631    71A     -0.257988    72A     -0.244600  \n      73A     -0.242850    74A     -0.231150    75A     -0.220427  \n      76A     -0.208552    77A     -0.199412    78A     -0.180300  \n\n    Virtual:                                                              \n\n      79A     -0.035411    80A     -0.033790    81A     -0.020717  \n      82A     -0.017278    83A     -0.007157    84A     -0.004912  \n      85A      0.016701    86A      0.023163    87A      0.030520  \n      88A      0.032446    89A      0.034345    90A      0.050508  \n      91A      0.063027    92A      0.071828    93A      0.076264  \n      94A      0.088179    95A      0.135026    96A      0.149893  \n      97A      0.158534    98A      0.159800    99A      0.171883  \n     100A      0.175746   101A      0.188141   102A      0.196328  \n     103A      0.198939   104A      0.207312   105A      0.233974  \n     106A      0.241799   107A      0.251068   108A      0.266592  \n     109A      0.273587   110A      0.288568   111A      0.295179  \n     112A      0.303199   113A      0.316455   114A      0.322891  \n     115A      0.345077   116A      0.349981   117A      0.354810  \n     118A      0.359659   119A      0.375485   120A      0.380730  \n     121A      0.383892   122A      0.389677   123A      0.399849  \n     124A      0.400813   125A      0.415485   126A      0.432678  \n     127A      0.444088   128A      0.450372   129A      0.453494  \n     130A      0.458327   131A      0.468551   132A      0.470387  \n     133A      0.479254   134A      0.484628   135A      0.492084  \n     136A      0.503012   137A      0.516515   138A      0.517790  \n     139A      0.534586   140A      0.545598   141A      0.551564  \n     142A      0.567152   143A      0.574386   144A      0.591288  \n     145A      0.600132   146A      0.608285   147A      0.623711  \n     148A      0.626925   149A      0.632664   150A      0.637962  \n     151A      0.644911   152A      0.657574   153A      0.660700  \n     154A      0.674915   155A      0.681429   156A      0.683373  \n     157A      0.696438   158A      0.703264   159A      0.709517  \n     160A      0.715007   161A      0.720383   162A      0.730554  \n     163A      0.735511   164A      0.738443   165A      0.755649  \n     166A      0.766937   167A      0.777498   168A      0.778574  \n     169A      0.788649   170A      0.791553   171A      0.821631  \n     172A      0.832467   173A      0.843349   174A      0.855846  \n     175A      0.864772   176A      0.874980   177A      0.890605  \n     178A      0.895932   179A      0.906647   180A      0.923399  \n     181A      0.929673   182A      0.946443   183A      0.954833  \n     184A      0.961917   185A      0.977327   186A      0.990724  \n     187A      1.019406   188A      1.023559   189A      1.028744  \n     190A      1.046387   191A      1.069803   192A      1.104208  \n     193A      1.118667   194A      1.121139   195A      1.132431  \n     196A      1.167525   197A      1.182353   198A      1.195095  \n     199A      1.200046   200A      1.214720   201A      1.230286  \n     202A      1.238445   203A      1.240981   204A      1.249582  \n     205A      1.291788   206A      1.292983   207A      1.309817  \n     208A      1.319507   209A      1.336946   210A      1.338946  \n     211A      1.348877   212A      1.364004   213A      1.378046  \n     214A      1.380975   215A      1.389378   216A      1.396779  \n     217A      1.398718   218A      1.410479   219A      1.415677  \n     220A      1.446060   221A      1.456647   222A      1.459777  \n     223A      1.472314   224A      1.481654   225A      1.507147  \n     226A      1.515650   227A      1.525275   228A      1.545789  \n     229A      1.565095   230A      1.595446   231A      1.606218  \n     232A      1.639952   233A      1.710362   234A      1.729977  \n     235A      1.741338   236A      1.776338   237A      1.804286  \n     238A      1.806766   239A      1.831472   240A      1.839965  \n     241A      1.855635   242A      1.864678   243A      1.880553  \n     244A      1.882311   245A      1.889511   246A      1.896440  \n     247A      1.901534   248A      1.911376   249A      1.918004  \n     250A      1.926298   251A      1.947787   252A      1.954454  \n     253A      1.958768   254A      1.978486   255A      1.981199  \n     256A      1.991144   257A      2.005270   258A      2.014292  \n     259A      2.017759   260A      2.042732   261A      2.047915  \n     262A      2.059480   263A      2.065910   264A      2.078260  \n     265A      2.082560   266A      2.101672   267A      2.110410  \n     268A      2.123024   269A      2.141474   270A      2.146548  \n     271A      2.171416   272A      2.191553   273A      2.210911  \n     274A      2.216447   275A      2.229247   276A      2.233607  \n     277A      2.250197   278A      2.257994   279A      2.270168  \n     280A      2.286692   281A      2.312124   282A      2.334971  \n     283A      2.349187   284A      2.358381   285A      2.370932  \n     286A      2.378331   287A      2.389260   288A      2.394388  \n     289A      2.413456   290A      2.420506   291A      2.433621  \n     292A      2.442269   293A      2.453667   294A      2.460466  \n     295A      2.468099   296A      2.473800   297A      2.485556  \n     298A      2.493186   299A      2.510825   300A      2.519227  \n     301A      2.526665   302A      2.536624   303A      2.539993  \n     304A      2.550882   305A      2.551856   306A      2.562623  \n     307A      2.577463   308A      2.606205   309A      2.651045  \n     310A      2.672724   311A      2.678499   312A      2.679537  \n     313A      2.700529   314A      2.709581   315A      2.723575  \n     316A      2.726977   317A      2.732473   318A      2.747809  \n     319A      2.769086   320A      2.793819   321A      2.799430  \n     322A      2.802873   323A      2.809152   324A      2.830892  \n     325A      2.862558   326A      2.870564   327A      2.877949  \n     328A      2.897294   329A      2.920184   330A      2.929275  \n     331A      2.940228   332A      2.992398   333A      3.012722  \n     334A      3.027884   335A      3.054150   336A      3.068300  \n     337A      3.079184   338A      3.083615   339A      3.173928  \n     340A      3.196288   341A      3.202302   342A      3.219839  \n     343A      3.257955   344A      3.275647   345A      3.284547  \n     346A      3.328121   347A      3.371924   348A      3.394538  \n     349A      3.430721   350A      3.464314   351A      3.468481  \n     352A      3.490361   353A      3.697409   354A      3.748165  \n     355A      3.757493   356A      3.808964   357A      3.847952  \n     358A      3.851022  \n\n    Final Occupation by Irrep:\n              A \n    DOCC [    78 ]\n\n  @DF-RKS Final Energy: -1084.71815242692742\n\n   => Energetics <=\n\n    Nuclear Repulsion Energy =           1842.1167887086446626\n    One-Electron Energy =               -5137.4695111676601300\n    Two-Electron Energy =                2355.0468709015144668\n    DFT Exchange-Correlation Energy =    -144.9968528803743766\n    Empirical Dispersion Energy =           0.0000000000000000\n    VV10 Nonlocal Energy =                  0.5845520109477300\n    Total Energy =                      -1084.7181524269274178\n\nComputation Completed\n\n\nProperties will be evaluated at   0.000000,   0.000000,   0.000000 [a0]\n\nProperties computed using the SCF density matrix\n\n  Nuclear Dipole Moment: [e a0]\n     X:    -6.9281      Y:     3.1257      Z:     6.6352\n\n  Electronic Dipole Moment: [e a0]\n     X:     3.3485      Y:    -1.3312      Z:    -3.1946\n\n  Dipole Moment: [e a0]\n     X:    -3.5795      Y:     1.7945      Z:     3.4406     Total:     5.2793\n\n  Dipole Moment: [D]\n     X:    -9.0983      Y:     4.5612      Z:     8.7450     Total:    13.4186\n\n\n*** tstop() called on bignimbus at Sun Apr 25 10:51:40 2021\nModule time:\n\tuser time   =    1911.72 seconds =      31.86 minutes\n\tsystem time =      18.35 seconds =       0.31 minutes\n\ttotal time  =        125 seconds =       2.08 minutes\nTotal time:\n\tuser time   =    1911.72 seconds =      31.86 minutes\n\tsystem time =      18.35 seconds =       0.31 minutes\n\ttotal time  =        125 seconds =       2.08 minutes\n\n    Psi4 stopped on: Sunday, 25 April 2021 10:51AM\n    Psi4 wall time for execution: 0:02:04.79\n\n*** Psi4 exiting successfully. Buy a developer a beer!\n",
 "stderr": null,
 "success": true,
 "error": null,
 "tag": "b97m-v pcseg-1 ggg_b"
}