{
 "id": null,
 "schema_name": "qcschema_output",
 "schema_version": 1,
 "molecule": {
  "validated": true,
  "symbols": [
   "C",
   "C",
   "C",
   "C",
   "C",
   "C",
   "C",
   "C",
   "C",
   "N",
   "N",
   "N",
   "N",
   "N",
   "N",
   "N",
   "N",
   "O",
   "O",
   "H",
   "H",
   "H",
   "H",
   "H",
   "H",
   "H",
   "H",
   "H",
   "H"
  ],
  "geometry": [
   -5.385731230938672,
   -0.06512979195590196,
   -2.408510240614475,
   -9.333369107020077,
   -0.3920524116601065,
   -0.08225738017588884,
   -8.074811507465164,
   -0.25599213062714243,
   2.149509173989806,
   -5.368723695809551,
   -0.06324006583044417,
   2.039905058713252,
   2.48686780771864,
   0.11061473771167618,
   2.011559166831385,
   2.496316438345929,
   0.18242433047907314,
   -2.6768513504294873,
   6.185061835239609,
   0.09171747645709827,
   -0.6794108358205626,
   5.168389179743299,
   0.10872501158621839,
   1.7658947705218673,
   9.155711304459315,
   -0.055681161328613,
   2.2742310982700227,
   -8.042686163332379,
   -0.2843380225090102,
   -2.304575303714295,
   -4.125283905258301,
   0.0482537755715673,
   -0.17674368644878027,
   -3.98733389809988,
   0.00856952693695368,
   4.156398319226019,
   1.2925608964292925,
   0.15974761697357875,
   -0.3694957512454787,
   4.998313828452094,
   0.13518117734262747,
   -2.9300746512408358,
   7.056225579075669,
   0.01801815756424264,
   3.5819215770868396,
   8.756979091987713,
   0.006679800811495002,
   -0.3165834197326595,
   1.026109512739739,
   0.2920284457556277,
   -4.761219266809471,
   -4.359609944815071,
   -0.01032773431762512,
   -4.515554870499954,
   1.1886259595291122,
   0.04447432332065172,
   3.978764063432984,
   -8.927077990046644,
   -0.5243332404421541,
   -3.986431555371763,
   -11.362934965761784,
   -0.6225989989659614,
   -0.21075875670702118,
   -9.076366353957813,
   -0.37504487653098595,
   3.9277414580456225,
   -4.841490106806818,
   -0.27488939188172123,
   5.840144297008944,
   -2.0125700969964484,
   0.027466788191531595,
   4.078919548082249,
   -0.6840926307995956,
   0.13896062959354305,
   -0.3317012287363222,
   11.03976825154077,
   -0.17473390723245563,
   3.052798261958648,
   10.06466957080453,
   -0.19363116848703443,
   -1.6979732174423317,
   1.9218396962067494,
   0.025577062066073804,
   -6.426067983337818,
   -0.9127494919799929,
   0.1257325467153385,
   -4.691299400167532
  ],
  "name": "C9H10N8O2",
  "molecular_charge": 0.0,
  "molecular_multiplicity": 1,
  "masses": [
   12.0,
   12.0,
   12.0,
   12.0,
   12.0,
   12.0,
   12.0,
   12.0,
   12.0,
   14.00307400443,
   14.00307400443,
   14.00307400443,
   14.00307400443,
   14.00307400443,
   14.00307400443,
   14.00307400443,
   14.00307400443,
   15.99491461957,
   15.99491461957,
   1.00782503223,
   1.00782503223,
   1.00782503223,
   1.00782503223,
   1.00782503223,
   1.00782503223,
   1.00782503223,
   1.00782503223,
   1.00782503223,
   1.00782503223
  ],
  "real": [
   true,
   true,
   true,
   true,
   true,
   true,
   true,
   true,
   true,
   true,
   true,
   true,
   true,
   true,
   true,
   true,
   true,
   true,
   true,
   true,
   true,
   true,
   true,
   true,
   true,
   true,
   true,
   true,
   true
  ],
  "atom_labels": [
   "",
   "",
   "",
   "",
   "",
   "",
   "",
   "",
   "",
   "",
   "",
   "",
   "",
   "",
   "",
   "",
   "",
   "",
   "",
   "",
   "",
   "",
   "",
   "",
   "",
   "",
   "",
   "",
   ""
  ],
  "atomic_numbers": [
   6,
   6,
   6,
   6,
   6,
   6,
   6,
   6,
   6,
   7,
   7,
   7,
   7,
   7,
   7,
   7,
   7,
   8,
   8,
   1,
   1,
   1,
   1,
   1,
   1,
   1,
   1,
   1,
   1
  ],
  "mass_numbers": [
   12,
   12,
   12,
   12,
   12,
   12,
   12,
   12,
   12,
   14,
   14,
   14,
   14,
   14,
   14,
   14,
   14,
   16,
   16,
   1,
   1,
   1,
   1,
   1,
   1,
   1,
   1,
   1,
   1
  ],
  "fragments": [
   [
    0,
    1,
    2,
    3,
    4,
    5,
    6,
    7,
    8,
    9,
    10,
    11,
    12,
    13,
    14,
    15,
    16,
    17,
    18,
    19,
    20,
    21,
    22,
    23,
    24,
    25,
    26,
    27,
    28
   ]
  ],
  "fragment_charges": [
   0.0
  ],
  "fragment_multiplicities": [
   1
  ],
  "fix_com": false,
  "fix_orientation": false,
  "provenance": {
   "creator": "QCElemental",
   "version": "v0.19.0",
   "routine": "qcelemental.molparse.from_string"
  }
 },
 "driver": "energy",
 "model": {
  "method": "dsd-pbep86-nl",
  "basis": "pcseg-1"
 },
 "keywords": {
  "guess": "SAP",
  "freeze_core": "true",
  "dft_vv10_postscf": "true"
 },
 "protocols": {},
 "extras": {
  "qcvars": {
   "CURRENT DIPOLE X": -6.443353192818206,
   "CURRENT DIPOLE Y": -1.4155632909527447,
   "CURRENT DIPOLE Z": -1.596783111826181,
   "CURRENT ENERGY": -935.1857306163707,
   "CURRENT REFERENCE ENERGY": -933.77261141918,
   "DFT FUNCTIONAL TOTAL ENERGY": -933.77261141918,
   "DFT TOTAL ENERGY": -935.1857306163707,
   "DFT VV10 ENERGY": 0.1806213348878955,
   "DFT XC ENERGY": -39.23399765166417,
   "DOUBLE-HYBRID CORRECTION ENERGY": -1.4131191971907706,
   "DSD-PBEP86-NL DOUBLE-HYBRID CORRECTION ENERGY": -1.4131191971907706,
   "DSD-PBEP86-NL TOTAL ENERGY": -935.1857306163707,
   "NUCLEAR REPULSION ENERGY": 1391.394659364626,
   "ONE-ELECTRON ENERGY": -4036.9762840670496,
   "PCM POLARIZATION ENERGY": 0.0,
   "PE ENERGY": 0.0,
   "SCF DIPOLE X": -6.443353192818206,
   "SCF DIPOLE Y": -1.4155632909527447,
   "SCF DIPOLE Z": -1.596783111826181,
   "SCF ITERATION ENERGY": -933.9530079613405,
   "SCF ITERATIONS": 13.0,
   "SCF TOTAL ENERGY": -933.77261141918,
   "TWO-ELECTRON ENERGY": 1750.86238960002,
   "XC GRID RADIAL POINTS": 75.0,
   "XC GRID SPHERICAL POINTS": 302.0,
   "XC GRID TOTAL POINTS": 599224.0,
   "CURRENT DIPOLE": [
    -2.5350102045049754,
    -0.5569254517488778,
    -0.6282228153149116
   ],
   "SCF DIPOLE": [
    -2.5350102045049754,
    -0.5569254517488778,
    -0.6282228153149116
   ]
  }
 },
 "provenance": {
  "creator": "Psi4",
  "version": "1.4a2.dev923",
  "routine": "psi4.schema_runner.run_qcschema",
  "memory": 200.0,
  "username": "ubuntu",
  "nthreads": 32,
  "cpu": "AMD EPYC Processor (with IBPB)",
  "qcengine_version": "v0.17.0",
  "wall_time": 52.75679802894592,
  "hostname": "bignimbus"
 },
 "properties": {
  "calcinfo_nbasis": 316,
  "calcinfo_nmo": 316,
  "calcinfo_nalpha": 68,
  "calcinfo_nbeta": 68,
  "calcinfo_natom": 29,
  "nuclear_repulsion_energy": 1391.394659364626,
  "return_energy": -935.1857306163707,
  "scf_one_electron_energy": -4036.9762840670496,
  "scf_two_electron_energy": 1750.86238960002,
  "scf_vv10_energy": 0.1806213348878955,
  "scf_xc_energy": -39.23399765166417,
  "scf_dipole_moment": [
   -2.5350102045049754,
   -0.5569254517488778,
   -0.6282228153149116
  ],
  "scf_total_energy": -933.77261141918,
  "scf_iterations": 13
 },
 "wavefunction": null,
 "return_result": -935.1857306163707,
 "stdout": "\n    -----------------------------------------------------------------------\n          Psi4: An Open-Source Ab Initio Electronic Structure Package\n                               Psi4 1.4a2.dev923 \n\n                         Git: Rev {master} 5de566e \n\n\n    D. G. A. Smith, L. A. Burns, A. C. Simmonett, R. M. Parrish,\n    M. C. Schieber, R. Galvelis, P. Kraus, H. Kruse, R. Di Remigio,\n    A. Alenaizan, A. M. James, S. Lehtola, J. P. Misiewicz, M. Scheurer,\n    R. A. Shaw, J. B. Schriber, Y. Xie, Z. L. Glick, D. A. Sirianni,\n    J. S. O'Brien, J. M. Waldrop, A. Kumar, E. G. Hohenstein,\n    B. P. Pritchard, B. R. Brooks, H. F. Schaefer III, A. Yu. Sokolov,\n    K. Patkowski, A. E. DePrince III, U. Bozkaya, R. A. King,\n    F. A. Evangelista, J. M. Turney, T. D. Crawford, C. D. Sherrill,\n    J. Chem. Phys. 152(18) 184108 (2020). https://doi.org/10.1063/5.0006002\n\n                            Additional Code Authors\n    E. T. Seidl, C. L. Janssen, E. F. Valeev, M. L. Leininger,\n    J. F. Gonthier, R. M. Richard, H. R. McAlexander, M. Saitow, X. Wang,\n    P. Verma, and M. H. Lechner\n\n             Previous Authors, Complete List of Code Contributors,\n                       and Citations for Specific Modules\n    https://github.com/psi4/psi4/blob/master/codemeta.json\n    https://github.com/psi4/psi4/graphs/contributors\n    http://psicode.org/psi4manual/master/introduction.html#citing-psifour\n\n    -----------------------------------------------------------------------\n\n\n    Psi4 started on: Monday, 17 May 2021 03:48PM\n\n    Process ID: 2527530\n    Host:       bignimbus\n    PSIDATADIR: /home/ubuntu/pk/Applications/miniconda3/envs/psi4-1.4a2.dev923/share/psi4\n    Memory:     186.3 GiB\n    Threads:    32\n    \n  ==> Input QCSchema <==\n\n--------------------------------------------------------------------------\n{'driver': 'energy',\n 'extras': {},\n 'id': None,\n 'keywords': {'dft_vv10_postscf': 'true', 'freeze_core': 'true', 'guess': 'SAP'},\n 'model': {'basis': 'pcseg-1', 'method': 'dsd-pbep86-nl'},\n 'molecule': {'atom_labels': ['', '', '', '', '', '', '', '', '', '', '', '', '', '', '', '', '', '', '', '', '', '',\n                              '', '', '', '', '', '', ''],\n              'atomic_numbers': [6, 6, 6, 6, 6, 6, 6, 6, 6, 7, 7, 7, 7, 7, 7, 7, 7, 8, 8, 1, 1, 1, 1, 1, 1, 1, 1, 1, 1],\n              'fix_com': False,\n              'fix_orientation': False,\n              'fragment_charges': [0.0],\n              'fragment_multiplicities': [1],\n              'fragments': [[0, 1, 2, 3, 4, 5, 6, 7, 8, 9, 10, 11, 12, 13, 14, 15, 16, 17, 18, 19, 20, 21, 22, 23, 24,\n                             25, 26, 27, 28]],\n              'geometry': [-5.3857312309386725, -0.06512979195590063, -2.408510240614475, -9.333369107020077,\n                           -0.3920524116601052, -0.08225738017588882, -8.074811507465164, -0.2559921306271411,\n                           2.149509173989806, -5.368723695809552, -0.06324006583044284, 2.039905058713252,\n                           2.4868678077186392, 0.11061473771167751, 2.011559166831385, 2.496316438345928,\n                           0.18242433047907447, -2.6768513504294873, 6.185061835239608, 0.0917174764570996,\n                           -0.6794108358205626, 5.168389179743298, 0.10872501158621972, 1.7658947705218673,\n                           9.155711304459315, -0.05568116132861167, 2.2742310982700227, -8.042686163332379,\n                           -0.28433802250900886, -2.304575303714295, -4.125283905258302, 0.048253775571568625,\n                           -0.17674368644878025, -3.9873338980998807, 0.008569526936955008, 4.156398319226019,\n                           1.2925608964292916, 0.1597476169735801, -0.3694957512454787, 4.998313828452093,\n                           0.1351811773426288, -2.9300746512408358, 7.056225579075668, 0.018018157564243964,\n                           3.5819215770868396, 8.756979091987713, 0.006679800811496328, -0.3165834197326595,\n                           1.0261095127397382, 0.29202844575562903, -4.761219266809471, -4.359609944815072,\n                           -0.010327734317623793, -4.515554870499954, 1.1886259595291113, 0.04447432332065304,\n                           3.978764063432984, -8.927077990046644, -0.5243332404421528, -3.986431555371763,\n                           -11.362934965761784, -0.62259899896596, -0.21075875670702116, -9.076366353957813,\n                           -0.3750448765309846, 3.9277414580456225, -4.841490106806819, -0.2748893918817199,\n                           5.840144297008944, -2.0125700969964493, 0.02746678819153292, 4.078919548082249,\n                           -0.6840926307995965, 0.13896062959354438, -0.3317012287363222, 11.03976825154077,\n                           -0.1747339072324543, 3.052798261958648, 10.06466957080453, -0.1936311684870331,\n                           -1.6979732174423317, 1.9218396962067485, 0.02557706206607513, -6.426067983337818,\n                           -0.9127494919799938, 0.12573254671533984, -4.691299400167532],\n              'mass_numbers': [12, 12, 12, 12, 12, 12, 12, 12, 12, 14, 14, 14, 14, 14, 14, 14, 14, 16, 16, 1, 1, 1, 1,\n                               1, 1, 1, 1, 1, 1],\n              'masses': [12.0, 12.0, 12.0, 12.0, 12.0, 12.0, 12.0, 12.0, 12.0, 14.00307400443, 14.00307400443,\n                         14.00307400443, 14.00307400443, 14.00307400443, 14.00307400443, 14.00307400443, 14.00307400443,\n                         15.99491461957, 15.99491461957, 1.00782503223, 1.00782503223, 1.00782503223, 1.00782503223,\n                         1.00782503223, 1.00782503223, 1.00782503223, 1.00782503223, 1.00782503223, 1.00782503223],\n              'molecular_charge': 0.0,\n              'molecular_multiplicity': 1,\n              'name': 'C9H10N8O2',\n              'provenance': {'creator': 'QCElemental',\n                             'routine': 'qcelemental.molparse.from_string',\n                             'version': 'v0.19.0'},\n              'real': [True, True, True, True, True, True, True, True, True, True, True, True, True, True, True, True,\n                       True, True, True, True, True, True, True, True, True, True, True, True, True],\n              'symbols': ['C', 'C', 'C', 'C', 'C', 'C', 'C', 'C', 'C', 'N', 'N', 'N', 'N', 'N', 'N', 'N', 'N', 'O', 'O',\n                          'H', 'H', 'H', 'H', 'H', 'H', 'H', 'H', 'H', 'H'],\n              'validated': True},\n 'protocols': {},\n 'provenance': {'creator': 'QCElemental', 'routine': 'qcelemental.models.results', 'version': 'v0.17.0'},\n 'schema_name': 'qcschema_input',\n 'schema_version': 1}\n--------------------------------------------------------------------------\n\nScratch directory: /home/ubuntu/pk/scratch/tmp_7bim16x_psi_scratch/\n\n*** tstart() called on bignimbus\n*** at Mon May 17 15:48:36 2021\n\n   => Loading Basis Set <=\n\n    Name: PCSEG-1\n    Role: ORBITAL\n    Keyword: BASIS\n    atoms 1-9   entry C          line    90 file /home/ubuntu/pk/Applications/miniconda3/envs/psi4-1.4a2.dev923/share/psi4/basis/pcseg-1.gbs \n    atoms 10-17 entry N          line   111 file /home/ubuntu/pk/Applications/miniconda3/envs/psi4-1.4a2.dev923/share/psi4/basis/pcseg-1.gbs \n    atoms 18-19 entry O          line   132 file /home/ubuntu/pk/Applications/miniconda3/envs/psi4-1.4a2.dev923/share/psi4/basis/pcseg-1.gbs \n    atoms 20-29 entry H          line    13 file /home/ubuntu/pk/Applications/miniconda3/envs/psi4-1.4a2.dev923/share/psi4/basis/pcseg-1.gbs \n\n   => DSD-PBEP86-NL: Empirical Dispersion <=\n\n    Grimme's -NL (DFT plus VV10 correlation) \n    Hujo, W.; Grimme, S; (2011), J. Chem. Theory Comput.; 7:3866\n    Parametrisation from:    M. K. Kesharwani, A. Karton, J.M. L. Martin, J. Chem. Theory Comput. 12, 444-454, 2016\n\n         b =      12.800000\n         c =       0.009300\n\n\n         ---------------------------------------------------------\n                                   SCF\n               by Justin Turney, Rob Parrish, Andy Simmonett\n                          and Daniel G. A. Smith\n                              RKS Reference\n                       32 Threads, 190734 MiB Core\n         ---------------------------------------------------------\n\n  ==> Geometry <==\n\n    Molecular point group: c1\n    Full point group: C1\n\n    Geometry (in Bohr), charge = 0, multiplicity = 1:\n\n       Center              X                  Y                   Z               Mass       \n    ------------   -----------------  -----------------  -----------------  -----------------\n         C           -5.385731230939    -0.065129791956    -2.408510240614    12.000000000000\n         C           -9.333369107020    -0.392052411660    -0.082257380176    12.000000000000\n         C           -8.074811507465    -0.255992130627     2.149509173990    12.000000000000\n         C           -5.368723695810    -0.063240065830     2.039905058713    12.000000000000\n         C            2.486867807719     0.110614737712     2.011559166831    12.000000000000\n         C            2.496316438346     0.182424330479    -2.676851350429    12.000000000000\n         C            6.185061835240     0.091717476457    -0.679410835821    12.000000000000\n         C            5.168389179743     0.108725011586     1.765894770522    12.000000000000\n         C            9.155711304459    -0.055681161329     2.274231098270    12.000000000000\n         N           -8.042686163332    -0.284338022509    -2.304575303714    14.003074004430\n         N           -4.125283905258     0.048253775572    -0.176743686449    14.003074004430\n         N           -3.987333898100     0.008569526937     4.156398319226    14.003074004430\n         N            1.292560896429     0.159747616974    -0.369495751245    14.003074004430\n         N            4.998313828452     0.135181177343    -2.930074651241    14.003074004430\n         N            7.056225579076     0.018018157564     3.581921577087    14.003074004430\n         N            8.756979091988     0.006679800811    -0.316583419733    14.003074004430\n         N            1.026109512740     0.292028445756    -4.761219266809    14.003074004430\n         O           -4.359609944815    -0.010327734318    -4.515554870500    15.994914619570\n         O            1.188625959529     0.044474323321     3.978764063433    15.994914619570\n         H           -8.927077990047    -0.524333240442    -3.986431555372     1.007825032230\n         H          -11.362934965762    -0.622598998966    -0.210758756707     1.007825032230\n         H           -9.076366353958    -0.375044876531     3.927741458046     1.007825032230\n         H           -4.841490106807    -0.274889391882     5.840144297009     1.007825032230\n         H           -2.012570096996     0.027466788192     4.078919548082     1.007825032230\n         H           -0.684092630800     0.138960629594    -0.331701228736     1.007825032230\n         H           11.039768251541    -0.174733907232     3.052798261959     1.007825032230\n         H           10.064669570805    -0.193631168487    -1.697973217442     1.007825032230\n         H            1.921839696207     0.025577062066    -6.426067983338     1.007825032230\n         H           -0.912749491980     0.125732546715    -4.691299400168     1.007825032230\n\n  Running in c1 symmetry.\n\n  Rotational constants: A =      0.02936  B =      0.00676  C =      0.00550 [cm^-1]\n  Rotational constants: A =    880.10499  B =    202.52246  C =    164.76767 [MHz]\n  Nuclear repulsion = 1391.394659364626023\n\n  Charge       = 0\n  Multiplicity = 1\n  Electrons    = 136\n  Nalpha       = 68\n  Nbeta        = 68\n\n  ==> Algorithm <==\n\n  SCF Algorithm Type is DF.\n  DIIS enabled.\n  MOM disabled.\n  Fractional occupation disabled.\n  Guess Type is SAP.\n  Energy threshold   = 1.00e-06\n  Density threshold  = 1.00e-06\n  Integral threshold = 0.00e+00\n\n  ==> Primary Basis <==\n\n  Basis Set: PCSEG-1\n    Blend: PCSEG-1\n    Number of shells: 144\n    Number of basis function: 316\n    Number of Cartesian functions: 335\n    Spherical Harmonics?: true\n    Max angular momentum: 2\n\n  ==> DFT Potential <==\n\n   => Composite Functional: DSD-PBEP86-NL <= \n\n    DSD-PBEP86-NL (D3BJ parameters) VV10 SCS Double Hybrid XC Functional\n\n    S. Kozuch, J.M.L. Martin, J. Comp. Chem., 34, 2327-2344, 2013\n\n\n    Deriv               =              1\n    GGA                 =           TRUE\n    Meta                =          FALSE\n\n    Exchange Hybrid     =           TRUE\n    MP2 Hybrid          =           TRUE\n\n   => Exchange Functionals <=\n\n    0.3100     XC_GGA_X_PBE\n\n   => Exact (HF) Exchange <=\n\n    0.6900               HF \n\n   => Correlation Functionals <=\n\n    0.4400     XC_GGA_C_P86\n\n   => MP2 Correlation <=\n\n    MP2 SCS Hybrid      =           TRUE\n    MP2 OS Alpha        =       0.520000\n    MP2 SS Alpha        =       0.220000\n\n   => LibXC Density Thresholds  <==\n\n    XC_GGA_C_P86:  1.00E-25 \n    XC_GGA_X_PBE:  1.00E-32 \n\n   => VV10 Non-Local Parameters <=\n\n    VV10 B              =     1.2800E+01\n    VV10 C              =     9.3000E-03\n\n   => Molecular Quadrature <=\n\n    Radial Scheme          =       TREUTLER\n    Pruning Scheme         =           NONE\n    Nuclear Scheme         =       TREUTLER\n\n    BS radius alpha        =              1\n    Pruning alpha          =              1\n    Radial Points          =             75\n    Spherical Points       =            302\n    Total Points           =         599224\n    Total Blocks           =           4347\n    Max Points             =            256\n    Max Functions          =            241\n    Weights Tolerance      =       1.00E-15\n\n   => Loading Basis Set <=\n\n    Name: (PCSEG-1 AUX)\n    Role: JKFIT\n    Keyword: DF_BASIS_SCF\n    atoms 1-9   entry C          line   198 file /home/ubuntu/pk/Applications/miniconda3/envs/psi4-1.4a2.dev923/share/psi4/basis/def2-universal-jkfit.gbs \n    atoms 10-17 entry N          line   258 file /home/ubuntu/pk/Applications/miniconda3/envs/psi4-1.4a2.dev923/share/psi4/basis/def2-universal-jkfit.gbs \n    atoms 18-19 entry O          line   318 file /home/ubuntu/pk/Applications/miniconda3/envs/psi4-1.4a2.dev923/share/psi4/basis/def2-universal-jkfit.gbs \n    atoms 20-29 entry H          line    18 file /home/ubuntu/pk/Applications/miniconda3/envs/psi4-1.4a2.dev923/share/psi4/basis/def2-universal-jkfit.gbs \n\n  ==> Integral Setup <==\n\n  DFHelper Memory: AOs need 0.921 GiB; user supplied 137.140 GiB. Using in-core AOs.\n\n  ==> MemDFJK: Density-Fitted J/K Matrices <==\n\n    J tasked:                   Yes\n    K tasked:                   Yes\n    wK tasked:                   No\n    OpenMP threads:              32\n    Memory [MiB]:            140431\n    Algorithm:                 Core\n    Schwarz Cutoff:           1E-12\n    Mask sparsity (%):      29.1019\n    Fitting Condition:        1E-10\n\n   => Auxiliary Basis Set <=\n\n  Basis Set: (PCSEG-1 AUX)\n    Blend: DEF2-UNIVERSAL-JKFIT\n    Number of shells: 535\n    Number of basis function: 1625\n    Number of Cartesian functions: 1931\n    Spherical Harmonics?: true\n    Max angular momentum: 4\n\n  Cached 100.0% of DFT collocation blocks in 2.558 [GiB].\n\n  Minimum eigenvalue in the overlap matrix is 8.9529786017E-04.\n  Reciprocal condition number of the overlap matrix is 1.4739409995E-04.\n    Using symmetric orthogonalization.\n\n  ==> Pre-Iterations <==\n\n  SCF Guess: Superposition of Atomic Potentials (doi:10.1021/acs.jctc.8b01089).\n\n  ==> SAP guess <==\n\n   => Molecular Quadrature <=\n\n    Radial Scheme          =       TREUTLER\n    Pruning Scheme         =           NONE\n    Nuclear Scheme         =       TREUTLER\n\n    BS radius alpha        =              1\n    Pruning alpha          =              1\n    Radial Points          =             75\n    Spherical Points       =            302\n    Total Points           =         599224\n    Total Blocks           =           4347\n    Max Points             =            256\n    Max Functions          =            241\n    Weights Tolerance      =       1.00E-15\n\n   -------------------------------------------------------\n    Irrep   Nso     Nmo     Nalpha   Nbeta   Ndocc  Nsocc\n   -------------------------------------------------------\n     A        316     316      68      68      68       0\n   -------------------------------------------------------\n    Total     316     316      68      68      68       0\n   -------------------------------------------------------\n\n  VV10: post-SCF option active \n \n  ==> Iterations <==\n\n                           Total Energy        Delta E     RMS |[F,P]|\n\n   @DF-RKS iter   1:  -927.53140386162772   -9.27531e+02   1.11778e-02 DIIS\n   @DF-RKS iter   2:  -912.20703807340908    1.53244e+01   1.69239e-02 DIIS\n   @DF-RKS iter   3:  -930.86091242024929   -1.86539e+01   6.07309e-03 DIIS\n   @DF-RKS iter   4:  -932.38674546330174   -1.52583e+00   4.12371e-03 DIIS\n   @DF-RKS iter   5:  -933.81948665157017   -1.43274e+00   1.58985e-03 DIIS\n   @DF-RKS iter   6:  -933.94404284873610   -1.24556e-01   3.59587e-04 DIIS\n   @DF-RKS iter   7:  -933.95037675654476   -6.33391e-03   2.10193e-04 DIIS\n   @DF-RKS iter   8:  -933.95248168918715   -2.10493e-03   8.37597e-05 DIIS\n   @DF-RKS iter   9:  -933.95294930709474   -4.67618e-04   2.71321e-05 DIIS\n   @DF-RKS iter  10:  -933.95300186711518   -5.25600e-05   8.28281e-06 DIIS\n   @DF-RKS iter  11:  -933.95300737751734   -5.51040e-06   2.66844e-06 DIIS\n   @DF-RKS iter  12:  -933.95300787322594   -4.95709e-07   1.09639e-06 DIIS\n   @DF-RKS iter  13:  -933.95300796134052   -8.81146e-08   4.08447e-07 DIIS\n  Energy and wave function converged.\n\n  ==> Computing Non-Self-Consistent VV10 Energy Correction <==\n\n\n  ==> Post-Iterations <==\n\n    Orbital Energies [Eh]\n    ---------------------\n\n    Doubly Occupied:                                                      \n\n       1A    -19.969602     2A    -19.950159     3A    -15.154721  \n       4A    -15.124813     5A    -15.105990     6A    -15.101798  \n       7A    -15.077473     8A    -15.076393     9A    -15.056181  \n      10A    -15.051743    11A    -10.979281    12A    -10.949736  \n      13A    -10.947324    14A    -10.933045    15A    -10.927695  \n      16A    -10.890179    17A    -10.877182    18A    -10.850463  \n      19A    -10.815209    20A     -1.290217    21A     -1.256186  \n      22A     -1.228099    23A     -1.203603    24A     -1.196457  \n      25A     -1.169052    26A     -1.091319    27A     -1.084638  \n      28A     -1.079863    29A     -1.055835    30A     -0.989327  \n      31A     -0.921937    32A     -0.843302    33A     -0.821514  \n      34A     -0.811117    35A     -0.787349    36A     -0.752257  \n      37A     -0.721235    38A     -0.714952    39A     -0.706548  \n      40A     -0.674279    41A     -0.655840    42A     -0.648575  \n      43A     -0.629647    44A     -0.614997    45A     -0.591844  \n      46A     -0.590915    47A     -0.586711    48A     -0.576439  \n      49A     -0.572978    50A     -0.556502    51A     -0.545541  \n      52A     -0.530707    53A     -0.528986    54A     -0.521324  \n      55A     -0.498249    56A     -0.478609    57A     -0.467799  \n      58A     -0.424536    59A     -0.407325    60A     -0.396686  \n      61A     -0.382982    62A     -0.371406    63A     -0.361267  \n      64A     -0.357109    65A     -0.352728    66A     -0.347215  \n      67A     -0.333338    68A     -0.253755  \n\n    Virtual:                                                              \n\n      69A      0.017969    70A      0.078822    71A      0.081284  \n      72A      0.085788    73A      0.098435    74A      0.110728  \n      75A      0.120843    76A      0.132887    77A      0.146931  \n      78A      0.152885    79A      0.164734    80A      0.172815  \n      81A      0.223731    82A      0.237233    83A      0.245588  \n      84A      0.261656    85A      0.276250    86A      0.290299  \n      87A      0.292629    88A      0.301767    89A      0.305907  \n      90A      0.330463    91A      0.347537    92A      0.349061  \n      93A      0.358429    94A      0.372640    95A      0.387641  \n      96A      0.396367    97A      0.409085    98A      0.411167  \n      99A      0.420985   100A      0.453766   101A      0.462872  \n     102A      0.470735   103A      0.476990   104A      0.485262  \n     105A      0.509662   106A      0.512525   107A      0.522989  \n     108A      0.534620   109A      0.543478   110A      0.556907  \n     111A      0.558655   112A      0.563322   113A      0.584110  \n     114A      0.592860   115A      0.602100   116A      0.609440  \n     117A      0.614640   118A      0.617627   119A      0.623091  \n     120A      0.635713   121A      0.651400   122A      0.655275  \n     123A      0.656647   124A      0.663751   125A      0.673736  \n     126A      0.685782   127A      0.709494   128A      0.720279  \n     129A      0.722445   130A      0.728712   131A      0.753171  \n     132A      0.771075   133A      0.779937   134A      0.801759  \n     135A      0.806175   136A      0.810264   137A      0.830842  \n     138A      0.831894   139A      0.833118   140A      0.850725  \n     141A      0.851678   142A      0.855432   143A      0.865634  \n     144A      0.881285   145A      0.891492   146A      0.892422  \n     147A      0.909058   148A      0.910184   149A      0.922031  \n     150A      0.947242   151A      0.959816   152A      0.967017  \n     153A      0.973873   154A      0.988162   155A      1.001301  \n     156A      1.010437   157A      1.039206   158A      1.046425  \n     159A      1.056197   160A      1.063509   161A      1.092830  \n     162A      1.116581   163A      1.128427   164A      1.143148  \n     165A      1.153890   166A      1.166060   167A      1.183767  \n     168A      1.221081   169A      1.239923   170A      1.252938  \n     171A      1.298199   172A      1.301661   173A      1.323351  \n     174A      1.339489   175A      1.361286   176A      1.373082  \n     177A      1.383171   178A      1.394444   179A      1.410532  \n     180A      1.411880   181A      1.433017   182A      1.437356  \n     183A      1.466465   184A      1.490202   185A      1.493508  \n     186A      1.506806   187A      1.511879   188A      1.529973  \n     189A      1.548045   190A      1.553455   191A      1.557140  \n     192A      1.576743   193A      1.596317   194A      1.603493  \n     195A      1.614581   196A      1.634569   197A      1.639242  \n     198A      1.646221   199A      1.656919   200A      1.668491  \n     201A      1.677856   202A      1.705448   203A      1.740997  \n     204A      1.761490   205A      1.834874   206A      1.858260  \n     207A      1.876490   208A      1.904234   209A      1.930461  \n     210A      1.959251   211A      1.980467   212A      1.991433  \n     213A      1.998746   214A      2.004975   215A      2.031006  \n     216A      2.035251   217A      2.045677   218A      2.053033  \n     219A      2.062621   220A      2.083582   221A      2.084497  \n     222A      2.094201   223A      2.125712   224A      2.133837  \n     225A      2.134850   226A      2.154225   227A      2.166578  \n     228A      2.177515   229A      2.195614   230A      2.198923  \n     231A      2.216360   232A      2.218362   233A      2.227674  \n     234A      2.246439   235A      2.267316   236A      2.298860  \n     237A      2.315355   238A      2.340470   239A      2.345975  \n     240A      2.355175   241A      2.362797   242A      2.367071  \n     243A      2.378707   244A      2.397464   245A      2.402018  \n     246A      2.422442   247A      2.434985   248A      2.447573  \n     249A      2.456553   250A      2.465411   251A      2.487693  \n     252A      2.498066   253A      2.500765   254A      2.513401  \n     255A      2.527939   256A      2.536122   257A      2.549108  \n     258A      2.561269   259A      2.590429   260A      2.603079  \n     261A      2.614369   262A      2.622730   263A      2.634678  \n     264A      2.644615   265A      2.654331   266A      2.664500  \n     267A      2.699291   268A      2.719563   269A      2.727418  \n     270A      2.738536   271A      2.751310   272A      2.763722  \n     273A      2.783410   274A      2.791303   275A      2.810125  \n     276A      2.832417   277A      2.841813   278A      2.851296  \n     279A      2.860020   280A      2.874338   281A      2.889068  \n     282A      2.912894   283A      2.925475   284A      2.943176  \n     285A      2.962932   286A      2.978874   287A      2.995047  \n     288A      3.014184   289A      3.024147   290A      3.058045  \n     291A      3.072723   292A      3.109308   293A      3.143974  \n     294A      3.167508   295A      3.183382   296A      3.200761  \n     297A      3.221108   298A      3.235866   299A      3.271758  \n     300A      3.311173   301A      3.327097   302A      3.350563  \n     303A      3.408707   304A      3.469200   305A      3.478411  \n     306A      3.499772   307A      3.540548   308A      3.574621  \n     309A      3.580491   310A      3.598356   311A      3.655261  \n     312A      3.840253   313A      3.857150   314A      3.894323  \n     315A      3.927072   316A      3.980545  \n\n    Final Occupation by Irrep:\n              A \n    DOCC [    68 ]\n\n  @DF-RKS Final Energy:  -933.77261141917995\n\n   => Energetics <=\n\n    Nuclear Repulsion Energy =           1391.3946593646260226\n    One-Electron Energy =               -4036.9762840670496189\n    Two-Electron Energy =                1750.8623896000199238\n    DFT Exchange-Correlation Energy =     -39.2339976516641684\n    Empirical Dispersion Energy =           0.0000000000000000\n    VV10 Nonlocal Energy =                  0.1806213348878955\n    Total Energy =                       -933.7726114191799525\n\nComputation Completed\n\n\nProperties will be evaluated at   0.000000,   0.000000,   0.000000 [a0]\n\nProperties computed using the SCF density matrix\n\n  Nuclear Dipole Moment: [e a0]\n     X:    -7.3564      Y:    -0.9170      Z:    -0.2171\n\n  Electronic Dipole Moment: [e a0]\n     X:     4.8214      Y:     0.3601      Z:    -0.4111\n\n  Dipole Moment: [e a0]\n     X:    -2.5350      Y:    -0.5569      Z:    -0.6282     Total:     2.6704\n\n  Dipole Moment: [D]\n     X:    -6.4434      Y:    -1.4156      Z:    -1.5968     Total:     6.7875\n\n\n*** tstop() called on bignimbus at Mon May 17 15:49:15 2021\nModule time:\n\tuser time   =     988.64 seconds =      16.48 minutes\n\tsystem time =      18.52 seconds =       0.31 minutes\n\ttotal time  =         39 seconds =       0.65 minutes\nTotal time:\n\tuser time   =     988.64 seconds =      16.48 minutes\n\tsystem time =      18.52 seconds =       0.31 minutes\n\ttotal time  =         39 seconds =       0.65 minutes\n\n*** tstart() called on bignimbus\n*** at Mon May 17 15:49:15 2021\n\n   => Loading Basis Set <=\n\n    Name: (PCSEG-1 AUX)\n    Role: RIFIT\n    Keyword: DF_BASIS_MP2\n    atoms 1-9   entry C          line   153 file /home/ubuntu/pk/Applications/miniconda3/envs/psi4-1.4a2.dev923/share/psi4/basis/def2-svp-ri.gbs \n    atoms 10-17 entry N          line   193 file /home/ubuntu/pk/Applications/miniconda3/envs/psi4-1.4a2.dev923/share/psi4/basis/def2-svp-ri.gbs \n    atoms 18-19 entry O          line   233 file /home/ubuntu/pk/Applications/miniconda3/envs/psi4-1.4a2.dev923/share/psi4/basis/def2-svp-ri.gbs \n    atoms 20-29 entry H          line    22 file /home/ubuntu/pk/Applications/miniconda3/envs/psi4-1.4a2.dev923/share/psi4/basis/def2-svp-ri.gbs \n\n\t --------------------------------------------------------\n\t                          DF-MP2                         \n\t      2nd-Order Density-Fitted Moller-Plesset Theory     \n\t              RMP2 Wavefunction,  32 Threads             \n\t                                                         \n\t        Rob Parrish, Justin Turney, Andy Simmonett,      \n\t           Ed Hohenstein, and C. David Sherrill          \n\t --------------------------------------------------------\n\n   => Auxiliary Basis Set <=\n\n  Basis Set: (PCSEG-1 AUX)\n    Blend: DEF2-SVP-RI\n    Number of shells: 364\n    Number of basis function: 1052\n    Number of Cartesian functions: 1195\n    Spherical Harmonics?: true\n    Max angular momentum: 3\n\n\t --------------------------------------------------------\n\t                 NBF =   316, NAUX =  1052\n\t --------------------------------------------------------\n\t   CLASS    FOCC     OCC    AOCC    AVIR     VIR    FVIR\n\t   PAIRS      19      68      49     248     248       0\n\t --------------------------------------------------------\n\n\t-----------------------------------------------------------\n\t ==================> DF-MP2 Energies <==================== \n\t-----------------------------------------------------------\n\t Reference Energy          =    -933.7726114191799525 [Eh]\n\t Singles Energy            =      -0.0000000000000000 [Eh]\n\t Same-Spin Energy          =      -0.9019415018294972 [Eh]\n\t Opposite-Spin Energy      =      -2.3359462822851560 [Eh]\n\t Correlation Energy        =      -3.2378877841146529 [Eh]\n\t Total Energy              =    -937.0104992032945574 [Eh]\n\t-----------------------------------------------------------\n\t ================> DF-SCS-MP2 Energies <================== \n\t-----------------------------------------------------------\n\t SCS Same-Spin Scale       =       0.2200000000000000 [-]\n\t SCS Opposite-Spin Scale   =       0.5200000000000000 [-]\n\t SCS Same-Spin Energy      =      -0.1984271304024894 [Eh]\n\t SCS Opposite-Spin Energy  =      -1.2146920667882812 [Eh]\n\t SCS Correlation Energy    =      -3.1037827060186860 [Eh]\n\t SCS Total Energy          =    -936.8763941251986580 [Eh]\n\t-----------------------------------------------------------\n\n\n\n    DSD-PBEP86-NL Energy Summary\n    ----------------------------\n    DFT Reference Energy                  =  -933.7726114191799525\n    Scaled MP2 Correlation                =    -1.4131191971907706\n    @Final double-hybrid DFT total energy =  -935.1857306163707335\n\n\n*** tstop() called on bignimbus at Mon May 17 15:49:21 2021\nModule time:\n\tuser time   =     107.53 seconds =       1.79 minutes\n\tsystem time =       3.23 seconds =       0.05 minutes\n\ttotal time  =          6 seconds =       0.10 minutes\nTotal time:\n\tuser time   =    1096.26 seconds =      18.27 minutes\n\tsystem time =      21.75 seconds =       0.36 minutes\n\ttotal time  =         45 seconds =       0.75 minutes\n\n    Psi4 stopped on: Monday, 17 May 2021 03:49PM\n    Psi4 wall time for execution: 0:00:45.06\n\n*** Psi4 exiting successfully. Buy a developer a beer!\n",
 "stderr": null,
 "success": true,
 "error": null,
 "tag": "dsd-pbep86-nl pcseg-1 c3gc_a"
}