{
 "id": null,
 "schema_name": "qcschema_output",
 "schema_version": 1,
 "molecule": {
  "validated": true,
  "symbols": [
   "N",
   "C",
   "N",
   "C",
   "C",
   "O",
   "N",
   "C",
   "N",
   "N",
   "C",
   "H",
   "H",
   "H",
   "H",
   "H"
  ],
  "geometry": [
   1.9795091944628955,
   2.1064834459358144,
   -3.2710258001379717,
   3.442157215567254,
   0.04479224306132246,
   -3.8587306251553546,
   3.037755824719278,
   -1.9205229274148177,
   -2.447105209438357,
   1.1329118902577873,
   -1.157073572729854,
   -0.8011537541645827,
   -0.012262141769655663,
   -2.415631172284768,
   1.2151840216989083,
   0.2787556815508495,
   -4.558580598553946,
   1.9767436502584184,
   -1.7942738780763892,
   -0.8301509530256518,
   2.4756313473792826,
   -2.3895376075956043,
   1.6208238316931525,
   1.8860367962364304,
   -4.060055502500323,
   2.879381431248068,
   3.327897829960767,
   -1.3464087863428829,
   2.818910195233415,
   -0.06605029136148675,
   0.4469413067165973,
   1.3279162822471884,
   -1.2830339161563362,
   1.9190379584482444,
   3.80723695884786,
   -4.140299817848581,
   -2.720239679550724,
   -1.6994249707362516,
   3.9722944387418746,
   4.817877834900553,
   0.1317196448323844,
   -5.370511525521616,
   -4.434221275340973,
   4.678400702683921,
   2.8233409544635233,
   -4.866968558070816,
   2.102703993684897,
   4.9095985969689675
  ],
  "name": "C5H5N5O",
  "molecular_charge": 0.0,
  "molecular_multiplicity": 1,
  "masses": [
   14.00307400443,
   12.0,
   14.00307400443,
   12.0,
   12.0,
   15.99491461957,
   14.00307400443,
   12.0,
   14.00307400443,
   14.00307400443,
   12.0,
   1.00782503223,
   1.00782503223,
   1.00782503223,
   1.00782503223,
   1.00782503223
  ],
  "real": [
   true,
   true,
   true,
   true,
   true,
   true,
   true,
   true,
   true,
   true,
   true,
   true,
   true,
   true,
   true,
   true
  ],
  "atom_labels": [
   "",
   "",
   "",
   "",
   "",
   "",
   "",
   "",
   "",
   "",
   "",
   "",
   "",
   "",
   "",
   ""
  ],
  "atomic_numbers": [
   7,
   6,
   7,
   6,
   6,
   8,
   7,
   6,
   7,
   7,
   6,
   1,
   1,
   1,
   1,
   1
  ],
  "mass_numbers": [
   14,
   12,
   14,
   12,
   12,
   16,
   14,
   12,
   14,
   14,
   12,
   1,
   1,
   1,
   1,
   1
  ],
  "fragments": [
   [
    0,
    1,
    2,
    3,
    4,
    5,
    6,
    7,
    8,
    9,
    10,
    11,
    12,
    13,
    14,
    15
   ]
  ],
  "fragment_charges": [
   0.0
  ],
  "fragment_multiplicities": [
   1
  ],
  "fix_com": false,
  "fix_orientation": false,
  "provenance": {
   "creator": "QCElemental",
   "version": "v0.19.0",
   "routine": "qcelemental.molparse.from_string"
  }
 },
 "driver": "energy",
 "model": {
  "method": "dsd-blyp-d3bj",
  "basis": "pcseg-2"
 },
 "keywords": {},
 "protocols": {},
 "extras": {
  "qcvars": {
   "2-BODY DISPERSION CORRECTION ENERGY": -0.01700774,
   "CURRENT DIPOLE X": -3.32901720213001,
   "CURRENT DIPOLE Y": 6.441619533384433,
   "CURRENT DIPOLE Z": 0.8740625181808876,
   "CURRENT ENERGY": -542.1682406916466,
   "CURRENT REFERENCE ENERGY": -541.1320305914488,
   "DFT FUNCTIONAL TOTAL ENERGY": -541.1150228514487,
   "DFT TOTAL ENERGY": -542.1682406916466,
   "DFT VV10 ENERGY": 0.0,
   "DFT XC ENERGY": -21.593194537814885,
   "DISPERSION CORRECTION ENERGY": -0.01700774,
   "DOUBLE-HYBRID CORRECTION ENERGY": -1.0362101001977497,
   "DSD-BLYP-D3BJ DISPERSION CORRECTION ENERGY": -0.01700774,
   "DSD-BLYP-D3BJ DOUBLE-HYBRID CORRECTION ENERGY": -1.0362101001977497,
   "DSD-BLYP-D3BJ TOTAL ENERGY": -542.1682406916466,
   "NUCLEAR REPULSION ENERGY": 594.6969861901529,
   "ONE-ELECTRON ENERGY": -1915.8454669308458,
   "PCM POLARIZATION ENERGY": 0.0,
   "PE ENERGY": 0.0,
   "SCF DIPOLE X": -3.32901720213001,
   "SCF DIPOLE Y": 6.441619533384433,
   "SCF DIPOLE Z": 0.8740625181808876,
   "SCF ITERATION ENERGY": -541.1320305914488,
   "SCF ITERATIONS": 9.0,
   "SCF TOTAL ENERGY": -541.1320305914488,
   "TWO-ELECTRON ENERGY": 801.626652427059,
   "XC GRID RADIAL POINTS": 75.0,
   "XC GRID SPHERICAL POINTS": 302.0,
   "XC GRID TOTAL POINTS": 336774.0,
   "CURRENT DIPOLE": [
    -1.3097361460455765,
    2.534328130400975,
    0.3438826549867793
   ],
   "SCF DIPOLE": [
    -1.3097361460455765,
    2.534328130400975,
    0.3438826549867793
   ]
  }
 },
 "provenance": {
  "creator": "Psi4",
  "version": "1.4a2.dev923",
  "routine": "psi4.schema_runner.run_qcschema",
  "username": "ubuntu",
  "memory": 100.0,
  "nthreads": 16,
  "wall_time": 21.516540050506592,
  "hostname": "bignimbus",
  "cpu": "AMD EPYC Processor (with IBPB)",
  "qcengine_version": "v0.17.0"
 },
 "properties": {
  "calcinfo_nbasis": 400,
  "calcinfo_nmo": 400,
  "calcinfo_nalpha": 39,
  "calcinfo_nbeta": 39,
  "calcinfo_natom": 16,
  "nuclear_repulsion_energy": 594.6969861901529,
  "return_energy": -542.1682406916466,
  "scf_one_electron_energy": -1915.8454669308458,
  "scf_two_electron_energy": 801.626652427059,
  "scf_xc_energy": -21.593194537814885,
  "scf_dispersion_correction_energy": -0.01700774,
  "scf_dipole_moment": [
   -1.3097361460455765,
   2.534328130400975,
   0.3438826549867793
  ],
  "scf_total_energy": -541.1320305914488,
  "scf_iterations": 9
 },
 "wavefunction": null,
 "return_result": -542.1682406916466,
 "stdout": "\n    -----------------------------------------------------------------------\n          Psi4: An Open-Source Ab Initio Electronic Structure Package\n                               Psi4 1.4a2.dev923 \n\n                         Git: Rev {master} 5de566e \n\n\n    D. G. A. Smith, L. A. Burns, A. C. Simmonett, R. M. Parrish,\n    M. C. Schieber, R. Galvelis, P. Kraus, H. Kruse, R. Di Remigio,\n    A. Alenaizan, A. M. James, S. Lehtola, J. P. Misiewicz, M. Scheurer,\n    R. A. Shaw, J. B. Schriber, Y. Xie, Z. L. Glick, D. A. Sirianni,\n    J. S. O'Brien, J. M. Waldrop, A. Kumar, E. G. Hohenstein,\n    B. P. Pritchard, B. R. Brooks, H. F. Schaefer III, A. Yu. Sokolov,\n    K. Patkowski, A. E. DePrince III, U. Bozkaya, R. A. King,\n    F. A. Evangelista, J. M. Turney, T. D. Crawford, C. D. Sherrill,\n    J. Chem. Phys. 152(18) 184108 (2020). https://doi.org/10.1063/5.0006002\n\n                            Additional Code Authors\n    E. T. Seidl, C. L. Janssen, E. F. Valeev, M. L. Leininger,\n    J. F. Gonthier, R. M. Richard, H. R. McAlexander, M. Saitow, X. Wang,\n    P. Verma, and M. H. Lechner\n\n             Previous Authors, Complete List of Code Contributors,\n                       and Citations for Specific Modules\n    https://github.com/psi4/psi4/blob/master/codemeta.json\n    https://github.com/psi4/psi4/graphs/contributors\n    http://psicode.org/psi4manual/master/introduction.html#citing-psifour\n\n    -----------------------------------------------------------------------\n\n\n    Psi4 started on: Thursday, 13 May 2021 03:42AM\n\n    Process ID: 2194826\n    Host:       bignimbus\n    PSIDATADIR: /home/ubuntu/pk/Applications/miniconda3/envs/psi4-1.4a2.dev923/share/psi4\n    Memory:     93.1 GiB\n    Threads:    16\n    \n  ==> Input QCSchema <==\n\n--------------------------------------------------------------------------\n{'driver': 'energy',\n 'extras': {},\n 'id': None,\n 'keywords': {},\n 'model': {'basis': 'pcseg-2', 'method': 'dsd-blyp-d3bj'},\n 'molecule': {'atom_labels': ['', '', '', '', '', '', '', '', '', '', '', '', '', '', '', ''],\n              'atomic_numbers': [7, 6, 7, 6, 6, 8, 7, 6, 7, 7, 6, 1, 1, 1, 1, 1],\n              'fix_com': False,\n              'fix_orientation': False,\n              'fragment_charges': [0.0],\n              'fragment_multiplicities': [1],\n              'fragments': [[0, 1, 2, 3, 4, 5, 6, 7, 8, 9, 10, 11, 12, 13, 14, 15]],\n              'geometry': [1.9795091944628904, 2.10648344593581, -3.2710258001380055, 3.4421572155672493,\n                           0.044792243061317905, -3.8587306251553883, 3.037755824719273, -1.9205229274148223,\n                           -2.4471052094383907, 1.1329118902577822, -1.1570735727298587, -0.8011537541646163,\n                           -0.012262141769660673, -2.4156311722847725, 1.2151840216988745, 0.2787556815508445,\n                           -4.5585805985539505, 1.9767436502583846, -1.7942738780763943, -0.8301509530256563,\n                           2.475631347379249, -2.389537607595609, 1.6208238316931478, 1.8860367962363966,\n                           -4.060055502500329, 2.8793814312480634, 3.327897829960733, -1.346408786342888,\n                           2.8189101952334106, -0.06605029136152041, 0.4469413067165923, 1.3279162822471837,\n                           -1.28303391615637, 1.9190379584482393, 3.8072369588478554, -4.140299817848614,\n                           -2.720239679550729, -1.6994249707362563, 3.972294438741841, 4.817877834900548,\n                           0.13171964483237986, -5.37051152552165, -4.434221275340978, 4.678400702683916,\n                           2.8233409544634895, -4.8669685580708215, 2.1027039936848926, 4.909598596968934],\n              'mass_numbers': [14, 12, 14, 12, 12, 16, 14, 12, 14, 14, 12, 1, 1, 1, 1, 1],\n              'masses': [14.00307400443, 12.0, 14.00307400443, 12.0, 12.0, 15.99491461957, 14.00307400443, 12.0,\n                         14.00307400443, 14.00307400443, 12.0, 1.00782503223, 1.00782503223, 1.00782503223,\n                         1.00782503223, 1.00782503223],\n              'molecular_charge': 0.0,\n              'molecular_multiplicity': 1,\n              'name': 'C5H5N5O',\n              'provenance': {'creator': 'QCElemental',\n                             'routine': 'qcelemental.molparse.from_string',\n                             'version': 'v0.19.0'},\n              'real': [True, True, True, True, True, True, True, True, True, True, True, True, True, True, True, True],\n              'symbols': ['N', 'C', 'N', 'C', 'C', 'O', 'N', 'C', 'N', 'N', 'C', 'H', 'H', 'H', 'H', 'H'],\n              'validated': True},\n 'protocols': {},\n 'provenance': {'creator': 'QCElemental', 'routine': 'qcelemental.models.results', 'version': 'v0.17.0'},\n 'schema_name': 'qcschema_input',\n 'schema_version': 1}\n--------------------------------------------------------------------------\n\nScratch directory: /home/ubuntu/pk/scratch/tmp15soi39o_psi_scratch/\n\n*** tstart() called on bignimbus\n*** at Thu May 13 03:42:42 2021\n\n   => Loading Basis Set <=\n\n    Name: PCSEG-2\n    Role: ORBITAL\n    Keyword: BASIS\n    atoms 1, 3, 7, 9-10 entry N          line   161 file /home/ubuntu/pk/Applications/miniconda3/envs/psi4-1.4a2.dev923/share/psi4/basis/pcseg-2.gbs \n    atoms 2, 4-5, 8, 11 entry C          line   129 file /home/ubuntu/pk/Applications/miniconda3/envs/psi4-1.4a2.dev923/share/psi4/basis/pcseg-2.gbs \n    atoms 6             entry O          line   193 file /home/ubuntu/pk/Applications/miniconda3/envs/psi4-1.4a2.dev923/share/psi4/basis/pcseg-2.gbs \n    atoms 12-16         entry H          line    13 file /home/ubuntu/pk/Applications/miniconda3/envs/psi4-1.4a2.dev923/share/psi4/basis/pcseg-2.gbs \n\n   => DSD-BLYP-D3BJ: Empirical Dispersion <=\n\n    Grimme's -D3 (BJ-damping) Dispersion Correction\n    Grimme S.; Ehrlich S.; Goerigk L. (2011), J. Comput. Chem., 32: 1456\n    Parametrisation from:    S. Kozuch, J.M.L. Martin, J. Comp. Chem., 34, 2327-2344, 2013\n\n        s6 =       0.570000\n        s8 =       0.000000\n        a1 =       0.000000\n        a2 =       5.400000\n\n\n         ---------------------------------------------------------\n                                   SCF\n               by Justin Turney, Rob Parrish, Andy Simmonett\n                          and Daniel G. A. Smith\n                              RKS Reference\n                       16 Threads,  95367 MiB Core\n         ---------------------------------------------------------\n\n  ==> Geometry <==\n\n    Molecular point group: c1\n    Full point group: C1\n\n    Geometry (in Bohr), charge = 0, multiplicity = 1:\n\n       Center              X                  Y                   Z               Mass       \n    ------------   -----------------  -----------------  -----------------  -----------------\n         N            1.979509194463     2.106483445936    -3.271025800138    14.003074004430\n         C            3.442157215567     0.044792243061    -3.858730625155    12.000000000000\n         N            3.037755824719    -1.920522927415    -2.447105209438    14.003074004430\n         C            1.132911890258    -1.157073572730    -0.801153754165    12.000000000000\n         C           -0.012262141770    -2.415631172285     1.215184021699    12.000000000000\n         O            0.278755681551    -4.558580598554     1.976743650258    15.994914619570\n         N           -1.794273878076    -0.830150953026     2.475631347379    14.003074004430\n         C           -2.389537607596     1.620823831693     1.886036796236    12.000000000000\n         N           -4.060055502500     2.879381431248     3.327897829961    14.003074004430\n         N           -1.346408786343     2.818910195233    -0.066050291361    14.003074004430\n         C            0.446941306717     1.327916282247    -1.283033916156    12.000000000000\n         H            1.919037958448     3.807236958848    -4.140299817849     1.007825032230\n         H           -2.720239679551    -1.699424970736     3.972294438742     1.007825032230\n         H            4.817877834901     0.131719644832    -5.370511525522     1.007825032230\n         H           -4.434221275341     4.678400702684     2.823340954464     1.007825032230\n         H           -4.866968558071     2.102703993685     4.909598596969     1.007825032230\n\n  Running in c1 symmetry.\n\n  Rotational constants: A =      0.06486  B =      0.03693  C =      0.02354 [cm^-1]\n  Rotational constants: A =   1944.44089  B =   1107.15421  C =    705.76789 [MHz]\n  Nuclear repulsion =  594.696986190152870\n\n  Charge       = 0\n  Multiplicity = 1\n  Electrons    = 78\n  Nalpha       = 39\n  Nbeta        = 39\n\n  ==> Algorithm <==\n\n  SCF Algorithm Type is DF.\n  DIIS enabled.\n  MOM disabled.\n  Fractional occupation disabled.\n  Guess Type is SAD.\n  Energy threshold   = 1.00e-06\n  Density threshold  = 1.00e-06\n  Integral threshold = 0.00e+00\n\n  ==> Primary Basis <==\n\n  Basis Set: PCSEG-2\n    Blend: PCSEG-2\n    Number of shells: 140\n    Number of basis function: 400\n    Number of Cartesian functions: 460\n    Spherical Harmonics?: true\n    Max angular momentum: 3\n\n  ==> DFT Potential <==\n\n   => Composite Functional: DSD-BLYP-D3BJ <= \n\n    DSD-BLYP-D3BJ Dispersion-corrected SCS Double Hybrid XC Functional\n\n    S. Kozuch, J.M.L. Martin, J. Comp. Chem., 34, 2327-2344, 2013\n\n\n    Deriv               =              1\n    GGA                 =           TRUE\n    Meta                =          FALSE\n\n    Exchange Hybrid     =           TRUE\n    MP2 Hybrid          =           TRUE\n\n   => Exchange Functionals <=\n\n    0.2900     XC_GGA_X_B88\n\n   => Exact (HF) Exchange <=\n\n    0.7100               HF \n\n   => Correlation Functionals <=\n\n    0.5400     XC_GGA_C_LYP\n\n   => MP2 Correlation <=\n\n    MP2 SCS Hybrid      =           TRUE\n    MP2 OS Alpha        =       0.470000\n    MP2 SS Alpha        =       0.400000\n\n   => LibXC Density Thresholds  <==\n\n    XC_GGA_C_LYP:  1.00E-32 \n    XC_GGA_X_B88:  1.00E-25 \n\n   => Molecular Quadrature <=\n\n    Radial Scheme          =       TREUTLER\n    Pruning Scheme         =           NONE\n    Nuclear Scheme         =       TREUTLER\n\n    BS radius alpha        =              1\n    Pruning alpha          =              1\n    Radial Points          =             75\n    Spherical Points       =            302\n    Total Points           =         336774\n    Total Blocks           =           2517\n    Max Points             =            256\n    Max Functions          =            357\n    Weights Tolerance      =       1.00E-15\n\n   => Loading Basis Set <=\n\n    Name: (PCSEG-2 AUX)\n    Role: JKFIT\n    Keyword: DF_BASIS_SCF\n    atoms 1, 3, 7, 9-10 entry N          line   258 file /home/ubuntu/pk/Applications/miniconda3/envs/psi4-1.4a2.dev923/share/psi4/basis/def2-universal-jkfit.gbs \n    atoms 2, 4-5, 8, 11 entry C          line   198 file /home/ubuntu/pk/Applications/miniconda3/envs/psi4-1.4a2.dev923/share/psi4/basis/def2-universal-jkfit.gbs \n    atoms 6             entry O          line   318 file /home/ubuntu/pk/Applications/miniconda3/envs/psi4-1.4a2.dev923/share/psi4/basis/def2-universal-jkfit.gbs \n    atoms 12-16         entry H          line    18 file /home/ubuntu/pk/Applications/miniconda3/envs/psi4-1.4a2.dev923/share/psi4/basis/def2-universal-jkfit.gbs \n\n  ==> Integral Setup <==\n\n  DFHelper Memory: AOs need 1.018 GiB; user supplied 67.519 GiB. Using in-core AOs.\n\n  ==> MemDFJK: Density-Fitted J/K Matrices <==\n\n    J tasked:                   Yes\n    K tasked:                   Yes\n    wK tasked:                   No\n    OpenMP threads:              16\n    Memory [MiB]:             69139\n    Algorithm:                 Core\n    Schwarz Cutoff:           1E-12\n    Mask sparsity (%):      13.1212\n    Fitting Condition:        1E-10\n\n   => Auxiliary Basis Set <=\n\n  Basis Set: (PCSEG-2 AUX)\n    Blend: DEF2-UNIVERSAL-JKFIT\n    Number of shells: 305\n    Number of basis function: 927\n    Number of Cartesian functions: 1103\n    Spherical Harmonics?: true\n    Max angular momentum: 4\n\n  Cached 100.0% of DFT collocation blocks in 2.330 [GiB].\n\n  Minimum eigenvalue in the overlap matrix is 7.1434843219E-05.\n  Reciprocal condition number of the overlap matrix is 6.9325794144E-06.\n    Using symmetric orthogonalization.\n\n  ==> Pre-Iterations <==\n\n  SCF Guess: Superposition of Atomic Densities via on-the-fly atomic UHF (no occupation information).\n\n   -------------------------\n    Irrep   Nso     Nmo    \n   -------------------------\n     A        400     400 \n   -------------------------\n    Total     400     400\n   -------------------------\n\n  ==> Iterations <==\n\n                           Total Energy        Delta E     RMS |[F,P]|\n\n   @DF-RKS iter SAD:  -541.01133435151121   -5.41011e+02   0.00000e+00 \n   @DF-RKS iter   1:  -540.77444407548330    2.36890e-01   2.24257e-03 DIIS\n   @DF-RKS iter   2:  -540.94225170118295   -1.67808e-01   1.74526e-03 DIIS\n   @DF-RKS iter   3:  -541.12415130721865   -1.81900e-01   3.32623e-04 DIIS\n   @DF-RKS iter   4:  -541.13087995671731   -6.72865e-03   1.19925e-04 DIIS\n   @DF-RKS iter   5:  -541.13196028522952   -1.08033e-03   2.29817e-05 DIIS\n   @DF-RKS iter   6:  -541.13201451447003   -5.42292e-05   1.00506e-05 DIIS\n   @DF-RKS iter   7:  -541.13202765991571   -1.31454e-05   3.97323e-06 DIIS\n   @DF-RKS iter   8:  -541.13203019728678   -2.53737e-06   1.67853e-06 DIIS\n   @DF-RKS iter   9:  -541.13203059144882   -3.94162e-07   4.78813e-07 DIIS\n  Energy and wave function converged.\n\n\n  ==> Post-Iterations <==\n\n    Orbital Energies [Eh]\n    ---------------------\n\n    Doubly Occupied:                                                      \n\n       1A    -19.999804     2A    -15.180742     3A    -15.180231  \n       4A    -15.169058     5A    -15.116642     6A    -15.108468  \n       7A    -11.012032     8A    -10.971810     9A    -10.944460  \n      10A    -10.925110    11A    -10.865543    12A     -1.274251  \n      13A     -1.239443    14A     -1.221910    15A     -1.119614  \n      16A     -1.098147    17A     -1.069178    18A     -0.943297  \n      19A     -0.827099    20A     -0.810221    21A     -0.765251  \n      22A     -0.735561    23A     -0.679937    24A     -0.672728  \n      25A     -0.647881    26A     -0.616690    27A     -0.597267  \n      28A     -0.570487    29A     -0.545876    30A     -0.544455  \n      31A     -0.542666    32A     -0.500185    33A     -0.433041  \n      34A     -0.405390    35A     -0.385084    36A     -0.381152  \n      37A     -0.373688    38A     -0.368113    39A     -0.273861  \n\n    Virtual:                                                              \n\n      40A      0.037582    41A      0.061301    42A      0.074647  \n      43A      0.080804    44A      0.085235    45A      0.102212  \n      46A      0.113478    47A      0.128884    48A      0.140705  \n      49A      0.182924    50A      0.184946    51A      0.197505  \n      52A      0.198207    53A      0.223624    54A      0.243257  \n      55A      0.252193    56A      0.268679    57A      0.279071  \n      58A      0.283291    59A      0.292777    60A      0.304432  \n      61A      0.309564    62A      0.322522    63A      0.339021  \n      64A      0.346202    65A      0.354168    66A      0.360866  \n      67A      0.362770    68A      0.366273    69A      0.376085  \n      70A      0.384119    71A      0.397076    72A      0.409118  \n      73A      0.419820    74A      0.437191    75A      0.439375  \n      76A      0.440429    77A      0.447188    78A      0.479862  \n      79A      0.493619    80A      0.496296    81A      0.508621  \n      82A      0.520962    83A      0.523156    84A      0.537136  \n      85A      0.559939    86A      0.566513    87A      0.578265  \n      88A      0.580478    89A      0.607812    90A      0.618618  \n      91A      0.629416    92A      0.638669    93A      0.640601  \n      94A      0.658251    95A      0.679563    96A      0.687304  \n      97A      0.703649    98A      0.708570    99A      0.737638  \n     100A      0.749050   101A      0.762439   102A      0.771845  \n     103A      0.783877   104A      0.792799   105A      0.800453  \n     106A      0.817479   107A      0.829571   108A      0.848322  \n     109A      0.857776   110A      0.867590   111A      0.920284  \n     112A      0.950229   113A      0.982894   114A      0.988705  \n     115A      1.016938   116A      1.054040   117A      1.066886  \n     118A      1.093747   119A      1.097458   120A      1.104894  \n     121A      1.129492   122A      1.156209   123A      1.173961  \n     124A      1.220911   125A      1.223144   126A      1.247464  \n     127A      1.269319   128A      1.274831   129A      1.299591  \n     130A      1.307733   131A      1.329088   132A      1.360631  \n     133A      1.368231   134A      1.379645   135A      1.390845  \n     136A      1.416161   137A      1.418059   138A      1.426077  \n     139A      1.439647   140A      1.465249   141A      1.492711  \n     142A      1.497644   143A      1.502675   144A      1.508636  \n     145A      1.519097   146A      1.557881   147A      1.565402  \n     148A      1.580814   149A      1.590464   150A      1.617233  \n     151A      1.625025   152A      1.644077   153A      1.654639  \n     154A      1.674164   155A      1.686076   156A      1.731385  \n     157A      1.746804   158A      1.757774   159A      1.781475  \n     160A      1.790780   161A      1.801147   162A      1.803950  \n     163A      1.824734   164A      1.846282   165A      1.852105  \n     166A      1.871086   167A      1.895815   168A      1.924057  \n     169A      1.928141   170A      1.954234   171A      1.956593  \n     172A      1.992833   173A      2.002860   174A      2.011559  \n     175A      2.025502   176A      2.035908   177A      2.060096  \n     178A      2.101338   179A      2.117180   180A      2.130376  \n     181A      2.131465   182A      2.149634   183A      2.181801  \n     184A      2.186070   185A      2.211385   186A      2.235359  \n     187A      2.247299   188A      2.250353   189A      2.275649  \n     190A      2.302411   191A      2.327841   192A      2.331166  \n     193A      2.362172   194A      2.402584   195A      2.409970  \n     196A      2.415489   197A      2.461095   198A      2.494745  \n     199A      2.527957   200A      2.557780   201A      2.618027  \n     202A      2.673063   203A      2.692727   204A      2.752400  \n     205A      2.811936   206A      2.834671   207A      2.882295  \n     208A      2.950703   209A      2.986273   210A      3.057231  \n     211A      3.073529   212A      3.086248   213A      3.134787  \n     214A      3.140653   215A      3.171757   216A      3.195133  \n     217A      3.208771   218A      3.251747   219A      3.290049  \n     220A      3.316109   221A      3.323782   222A      3.353415  \n     223A      3.366820   224A      3.399445   225A      3.423573  \n     226A      3.467185   227A      3.494325   228A      3.504651  \n     229A      3.530449   230A      3.551491   231A      3.569781  \n     232A      3.604627   233A      3.623571   234A      3.628639  \n     235A      3.670171   236A      3.677537   237A      3.686256  \n     238A      3.706267   239A      3.717484   240A      3.730018  \n     241A      3.751750   242A      3.776308   243A      3.812492  \n     244A      3.820187   245A      3.853104   246A      3.856623  \n     247A      3.877151   248A      3.901211   249A      3.947532  \n     250A      3.988613   251A      4.015285   252A      4.022829  \n     253A      4.047026   254A      4.065879   255A      4.110843  \n     256A      4.130526   257A      4.140546   258A      4.162366  \n     259A      4.169858   260A      4.192082   261A      4.204500  \n     262A      4.211867   263A      4.253183   264A      4.265229  \n     265A      4.268388   266A      4.270232   267A      4.287353  \n     268A      4.306251   269A      4.330429   270A      4.345406  \n     271A      4.368603   272A      4.383154   273A      4.399888  \n     274A      4.405868   275A      4.418563   276A      4.420334  \n     277A      4.427174   278A      4.448484   279A      4.459778  \n     280A      4.462035   281A      4.469227   282A      4.480207  \n     283A      4.523045   284A      4.532603   285A      4.543300  \n     286A      4.559119   287A      4.576067   288A      4.579686  \n     289A      4.585069   290A      4.596538   291A      4.601866  \n     292A      4.630754   293A      4.639587   294A      4.658637  \n     295A      4.660044   296A      4.668089   297A      4.688750  \n     298A      4.695603   299A      4.713933   300A      4.727281  \n     301A      4.738439   302A      4.766797   303A      4.786511  \n     304A      4.805283   305A      4.816776   306A      4.868226  \n     307A      4.880755   308A      4.885385   309A      4.925848  \n     310A      4.953746   311A      4.976263   312A      5.003958  \n     313A      5.006814   314A      5.033385   315A      5.063856  \n     316A      5.082550   317A      5.129649   318A      5.142619  \n     319A      5.148512   320A      5.158293   321A      5.161745  \n     322A      5.184729   323A      5.224883   324A      5.244832  \n     325A      5.251593   326A      5.260984   327A      5.316062  \n     328A      5.322784   329A      5.341740   330A      5.382591  \n     331A      5.392676   332A      5.419940   333A      5.428143  \n     334A      5.443245   335A      5.469964   336A      5.506546  \n     337A      5.532213   338A      5.539089   339A      5.555324  \n     340A      5.566897   341A      5.590180   342A      5.612718  \n     343A      5.621537   344A      5.661609   345A      5.667531  \n     346A      5.688487   347A      5.729696   348A      5.741182  \n     349A      5.757332   350A      5.766922   351A      5.773983  \n     352A      5.791557   353A      5.805419   354A      5.819546  \n     355A      5.862315   356A      5.871301   357A      5.882748  \n     358A      5.931634   359A      5.939471   360A      5.968798  \n     361A      5.985608   362A      5.992347   363A      6.013583  \n     364A      6.076763   365A      6.096623   366A      6.107272  \n     367A      6.170510   368A      6.192604   369A      6.209478  \n     370A      6.223260   371A      6.237599   372A      6.266197  \n     373A      6.314295   374A      6.374013   375A      6.404451  \n     376A      6.423609   377A      6.483705   378A      6.498056  \n     379A      6.557352   380A      6.610483   381A      6.640087  \n     382A      6.660769   383A      6.771662   384A      6.820681  \n     385A      6.837332   386A      6.858387   387A      6.918827  \n     388A      6.982155   389A      7.023413   390A      7.064096  \n     391A      7.109866   392A      7.132471   393A      7.261564  \n     394A      7.298491   395A      7.386689   396A      7.467422  \n     397A      7.608072   398A      8.120785   399A      8.890003  \n     400A      9.990061  \n\n    Final Occupation by Irrep:\n              A \n    DOCC [    39 ]\n\n  @DF-RKS Final Energy:  -541.13203059144882\n\n   => Energetics <=\n\n    Nuclear Repulsion Energy =            594.6969861901528702\n    One-Electron Energy =               -1915.8454669308457596\n    Two-Electron Energy =                 801.6266524270589571\n    DFT Exchange-Correlation Energy =     -21.5931945378148846\n    Empirical Dispersion Energy =          -0.0170077400000000\n    VV10 Nonlocal Energy =                  0.0000000000000000\n    Total Energy =                       -541.1320305914487108\n\nComputation Completed\n\n\nProperties will be evaluated at   0.000000,   0.000000,   0.000000 [a0]\n\nProperties computed using the SCF density matrix\n\n  Nuclear Dipole Moment: [e a0]\n     X:    -2.6175      Y:     4.4557      Z:     1.0936\n\n  Electronic Dipole Moment: [e a0]\n     X:     1.3078      Y:    -1.9213      Z:    -0.7497\n\n  Dipole Moment: [e a0]\n     X:    -1.3097      Y:     2.5343      Z:     0.3439     Total:     2.8734\n\n  Dipole Moment: [D]\n     X:    -3.3290      Y:     6.4416      Z:     0.8741     Total:     7.3035\n\n\n*** tstop() called on bignimbus at Thu May 13 03:42:55 2021\nModule time:\n\tuser time   =     145.08 seconds =       2.42 minutes\n\tsystem time =       8.28 seconds =       0.14 minutes\n\ttotal time  =         13 seconds =       0.22 minutes\nTotal time:\n\tuser time   =     145.08 seconds =       2.42 minutes\n\tsystem time =       8.28 seconds =       0.14 minutes\n\ttotal time  =         13 seconds =       0.22 minutes\n\n*** tstart() called on bignimbus\n*** at Thu May 13 03:42:55 2021\n\n   => Loading Basis Set <=\n\n    Name: (PCSEG-2 AUX)\n    Role: RIFIT\n    Keyword: DF_BASIS_MP2\n    atoms 1, 3, 7, 9-10 entry N          line   238 file /home/ubuntu/pk/Applications/miniconda3/envs/psi4-1.4a2.dev923/share/psi4/basis/def2-tzvpp-ri.gbs \n    atoms 2, 4-5, 8, 11 entry C          line   191 file /home/ubuntu/pk/Applications/miniconda3/envs/psi4-1.4a2.dev923/share/psi4/basis/def2-tzvpp-ri.gbs \n    atoms 6             entry O          line   285 file /home/ubuntu/pk/Applications/miniconda3/envs/psi4-1.4a2.dev923/share/psi4/basis/def2-tzvpp-ri.gbs \n    atoms 12-16         entry H          line    22 file /home/ubuntu/pk/Applications/miniconda3/envs/psi4-1.4a2.dev923/share/psi4/basis/def2-tzvpp-ri.gbs \n\n\t --------------------------------------------------------\n\t                          DF-MP2                         \n\t      2nd-Order Density-Fitted Moller-Plesset Theory     \n\t              RMP2 Wavefunction,  16 Threads             \n\t                                                         \n\t        Rob Parrish, Justin Turney, Andy Simmonett,      \n\t           Ed Hohenstein, and C. David Sherrill          \n\t --------------------------------------------------------\n\n   => Auxiliary Basis Set <=\n\n  Basis Set: (PCSEG-2 AUX)\n    Blend: DEF2-TZVPP-RI\n    Number of shells: 292\n    Number of basis function: 986\n    Number of Cartesian functions: 1220\n    Spherical Harmonics?: true\n    Max angular momentum: 4\n\n\t --------------------------------------------------------\n\t                 NBF =   400, NAUX =   986\n\t --------------------------------------------------------\n\t   CLASS    FOCC     OCC    AOCC    AVIR     VIR    FVIR\n\t   PAIRS       0      39      39     361     361       0\n\t --------------------------------------------------------\n\n\t-----------------------------------------------------------\n\t ==================> DF-MP2 Energies <==================== \n\t-----------------------------------------------------------\n\t Reference Energy          =    -541.1320305914488245 [Eh]\n\t Singles Energy            =      -0.0000000000000000 [Eh]\n\t Same-Spin Energy          =      -0.6210156041832815 [Eh]\n\t Opposite-Spin Energy      =      -1.6761784223924192 [Eh]\n\t Correlation Energy        =      -2.2971940265757009 [Eh]\n\t Total Energy              =    -543.4292246180244774 [Eh]\n\t-----------------------------------------------------------\n\t ================> DF-SCS-MP2 Energies <================== \n\t-----------------------------------------------------------\n\t SCS Same-Spin Scale       =       0.4000000000000000 [-]\n\t SCS Opposite-Spin Scale   =       0.4700000000000000 [-]\n\t SCS Same-Spin Energy      =      -0.2484062416733126 [Eh]\n\t SCS Opposite-Spin Energy  =      -0.7878038585244370 [Eh]\n\t SCS Correlation Energy    =      -2.2184193082653301 [Eh]\n\t SCS Total Energy          =    -543.3504498997141354 [Eh]\n\t-----------------------------------------------------------\n\n\n\n    DSD-BLYP-D3BJ Energy Summary\n    ----------------------------\n    DFT Reference Energy                  =  -541.1320305914488245\n    Scaled MP2 Correlation                =    -1.0362101001977497\n    @Final double-hybrid DFT total energy =  -542.1682406916465879\n\n\n*** tstop() called on bignimbus at Thu May 13 03:42:59 2021\nModule time:\n\tuser time   =      45.59 seconds =       0.76 minutes\n\tsystem time =       1.55 seconds =       0.03 minutes\n\ttotal time  =          4 seconds =       0.07 minutes\nTotal time:\n\tuser time   =     190.69 seconds =       3.18 minutes\n\tsystem time =       9.83 seconds =       0.16 minutes\n\ttotal time  =         17 seconds =       0.28 minutes\n\n    Psi4 stopped on: Thursday, 13 May 2021 03:42AM\n    Psi4 wall time for execution: 0:00:16.89\n\n*** Psi4 exiting successfully. Buy a developer a beer!\n",
 "stderr": null,
 "success": true,
 "error": null,
 "tag": "dsd-blyp-d3bj pcseg-2 ggg_a"
}