{
 "id": null,
 "schema_name": "qcschema_output",
 "schema_version": 1,
 "molecule": {
  "validated": true,
  "symbols": [
   "C",
   "C",
   "C",
   "C",
   "C",
   "N",
   "N",
   "N",
   "N",
   "N",
   "H",
   "H",
   "H",
   "H",
   "H"
  ],
  "geometry": [
   -2.6005148446510584,
   0.057862058844925304,
   -0.05834799091184591,
   -0.18166540406503784,
   -1.0514071767988198,
   0.03991776761196013,
   1.8611285375548743,
   0.6342285271095628,
   0.08527119462294801,
   -0.6465380309276636,
   3.967705412417172,
   0.03235886311012896,
   3.108347780357041,
   -3.3625422282337434,
   0.004012971228262092,
   -2.7857080049459246,
   2.5976539714602467,
   -0.05267881253547342,
   1.7553038745292358,
   3.1645718090975947,
   0.09849927750115343,
   0.6309168298818281,
   -3.543955936277695,
   -0.011104837775400238,
   3.9719526196912684,
   -0.9002290867621937,
   0.08716092074840669,
   -4.769920436676645,
   -1.3273071911156626,
   -0.11126032242466495,
   -0.9092099623663019,
   6.004830175660711,
   0.01913078023192442,
   4.406589628546569,
   -4.938573816865572,
   -0.07157607379005133,
   5.787979426256241,
   -0.31630371399572466,
   -0.04700963415909916,
   -6.351621203684847,
   -0.38811330676312217,
   -0.6366041853019416,
   -4.6414190601455125,
   -3.160341532809756,
   -0.6403836375528572
  ],
  "name": "C5H5N5",
  "molecular_charge": 0.0,
  "molecular_multiplicity": 1,
  "masses": [
   12.0,
   12.0,
   12.0,
   12.0,
   12.0,
   14.00307400443,
   14.00307400443,
   14.00307400443,
   14.00307400443,
   14.00307400443,
   1.00782503223,
   1.00782503223,
   1.00782503223,
   1.00782503223,
   1.00782503223
  ],
  "real": [
   true,
   true,
   true,
   true,
   true,
   true,
   true,
   true,
   true,
   true,
   true,
   true,
   true,
   true,
   true
  ],
  "atom_labels": [
   "",
   "",
   "",
   "",
   "",
   "",
   "",
   "",
   "",
   "",
   "",
   "",
   "",
   "",
   ""
  ],
  "atomic_numbers": [
   6,
   6,
   6,
   6,
   6,
   7,
   7,
   7,
   7,
   7,
   1,
   1,
   1,
   1,
   1
  ],
  "mass_numbers": [
   12,
   12,
   12,
   12,
   12,
   14,
   14,
   14,
   14,
   14,
   1,
   1,
   1,
   1,
   1
  ],
  "fragments": [
   [
    0,
    1,
    2,
    3,
    4,
    5,
    6,
    7,
    8,
    9,
    10,
    11,
    12,
    13,
    14
   ]
  ],
  "fragment_charges": [
   0.0
  ],
  "fragment_multiplicities": [
   1
  ],
  "fix_com": false,
  "fix_orientation": false,
  "provenance": {
   "creator": "QCElemental",
   "version": "v0.19.0",
   "routine": "qcelemental.molparse.from_string"
  }
 },
 "driver": "energy",
 "model": {
  "method": "b3lyp-d3bj",
  "basis": "def2-qzvpd"
 },
 "keywords": {
  "guess": "SAP",
  "freeze_core": "true",
  "dft_vv10_postscf": "true"
 },
 "protocols": {},
 "extras": {
  "qcvars": {
   "2-BODY DISPERSION CORRECTION ENERGY": -0.02758805,
   "B3LYP-D3(BJ) DISPERSION CORRECTION ENERGY": -0.02758805,
   "CURRENT DIPOLE X": 1.5196165786119458,
   "CURRENT DIPOLE Y": -1.8846571377586188,
   "CURRENT DIPOLE Z": -0.9094265867563005,
   "CURRENT ENERGY": -467.56038276691436,
   "CURRENT REFERENCE ENERGY": -467.56038276691436,
   "DFT FUNCTIONAL TOTAL ENERGY": -467.5327947169144,
   "DFT TOTAL ENERGY": -467.5603827669144,
   "DFT VV10 ENERGY": 0.0,
   "DFT XC ENERGY": -51.48324330706217,
   "DISPERSION CORRECTION ENERGY": -0.02758805,
   "NUCLEAR REPULSION ENERGY": 501.22359390313767,
   "ONE-ELECTRON ENERGY": -1626.7612160395304,
   "PCM POLARIZATION ENERGY": 0.0,
   "PE ENERGY": 0.0,
   "SCF DIPOLE X": 1.5196165786119458,
   "SCF DIPOLE Y": -1.8846571377586188,
   "SCF DIPOLE Z": -0.9094265867563005,
   "SCF ITERATION ENERGY": -467.56038276691436,
   "SCF ITERATIONS": 11.0,
   "SCF TOTAL ENERGY": -467.56038276691436,
   "TWO-ELECTRON ENERGY": 709.4880707265404,
   "XC GRID RADIAL POINTS": 75.0,
   "XC GRID SPHERICAL POINTS": 302.0,
   "XC GRID TOTAL POINTS": 317512.0,
   "CURRENT DIPOLE": [
    0.5978631651001143,
    -0.7414811718743592,
    -0.3577959501343133
   ],
   "SCF DIPOLE": [
    0.5978631651001143,
    -0.7414811718743592,
    -0.3577959501343133
   ]
  }
 },
 "provenance": {
  "creator": "Psi4",
  "version": "1.4a2.dev923",
  "routine": "psi4.schema_runner.run_qcschema",
  "hostname": "z140",
  "cpu": "Intel(R) Xeon(R) CPU E5-2620 v4 @ 2.10GHz",
  "username": "kraus",
  "nthreads": 16,
  "memory": 900.0,
  "wall_time": 51.43364715576172,
  "qcengine_version": "v0.16.0"
 },
 "properties": {
  "calcinfo_nbasis": 795,
  "calcinfo_nmo": 795,
  "calcinfo_nalpha": 35,
  "calcinfo_nbeta": 35,
  "calcinfo_natom": 15,
  "nuclear_repulsion_energy": 501.22359390313767,
  "return_energy": -467.56038276691436,
  "scf_one_electron_energy": -1626.7612160395304,
  "scf_two_electron_energy": 709.4880707265404,
  "scf_xc_energy": -51.48324330706217,
  "scf_dispersion_correction_energy": -0.02758805,
  "scf_dipole_moment": [
   0.5978631651001143,
   -0.7414811718743592,
   -0.3577959501343133
  ],
  "scf_total_energy": -467.56038276691436,
  "scf_iterations": 11
 },
 "wavefunction": null,
 "return_result": -467.56038276691436,
 "stdout": "\n    -----------------------------------------------------------------------\n          Psi4: An Open-Source Ab Initio Electronic Structure Package\n                               Psi4 1.4a2.dev923 \n\n                         Git: Rev {master} 5de566e \n\n\n    D. G. A. Smith, L. A. Burns, A. C. Simmonett, R. M. Parrish,\n    M. C. Schieber, R. Galvelis, P. Kraus, H. Kruse, R. Di Remigio,\n    A. Alenaizan, A. M. James, S. Lehtola, J. P. Misiewicz, M. Scheurer,\n    R. A. Shaw, J. B. Schriber, Y. Xie, Z. L. Glick, D. A. Sirianni,\n    J. S. O'Brien, J. M. Waldrop, A. Kumar, E. G. Hohenstein,\n    B. P. Pritchard, B. R. Brooks, H. F. Schaefer III, A. Yu. Sokolov,\n    K. Patkowski, A. E. DePrince III, U. Bozkaya, R. A. King,\n    F. A. Evangelista, J. M. Turney, T. D. Crawford, C. D. Sherrill,\n    J. Chem. Phys. 152(18) 184108 (2020). https://doi.org/10.1063/5.0006002\n\n                            Additional Code Authors\n    E. T. Seidl, C. L. Janssen, E. F. Valeev, M. L. Leininger,\n    J. F. Gonthier, R. M. Richard, H. R. McAlexander, M. Saitow, X. Wang,\n    P. Verma, and M. H. Lechner\n\n             Previous Authors, Complete List of Code Contributors,\n                       and Citations for Specific Modules\n    https://github.com/psi4/psi4/blob/master/codemeta.json\n    https://github.com/psi4/psi4/graphs/contributors\n    http://psicode.org/psi4manual/master/introduction.html#citing-psifour\n\n    -----------------------------------------------------------------------\n\n\n    Psi4 started on: Thursday, 20 May 2021 11:13PM\n\n    Process ID: 26386\n    Host:       z140\n    PSIDATADIR: /group/f97/kraus/miniconda3/envs/psi4-1.4a2.dev923/share/psi4\n    Memory:     838.2 GiB\n    Threads:    16\n    \n  ==> Input QCSchema <==\n\n--------------------------------------------------------------------------\n{'driver': 'energy',\n 'extras': {},\n 'id': None,\n 'keywords': {'dft_vv10_postscf': 'true', 'freeze_core': 'true', 'guess': 'SAP'},\n 'model': {'basis': 'def2-qzvpd', 'method': 'b3lyp-d3bj'},\n 'molecule': {'atom_labels': ['', '', '', '', '', '', '', '', '', '', '', '', '', '', ''],\n              'atomic_numbers': [6, 6, 6, 6, 6, 7, 7, 7, 7, 7, 1, 1, 1, 1, 1],\n              'fix_com': False,\n              'fix_orientation': False,\n              'fragment_charges': [0.0],\n              'fragment_multiplicities': [1],\n              'fragments': [[0, 1, 2, 3, 4, 5, 6, 7, 8, 9, 10, 11, 12, 13, 14]],\n              'geometry': [-2.600514844651058, 0.0578620588449254, -0.05834799091184806, -0.1816654040650374,\n                           -1.0514071767988198, 0.03991776761195798, 1.8611285375548747, 0.6342285271095629,\n                           0.08527119462294586, -0.6465380309276632, 3.967705412417172, 0.03235886311012681,\n                           3.1083477803570414, -3.3625422282337434, 0.004012971228259943, -2.785708004945924,\n                           2.5976539714602467, -0.05267881253547557, 1.7553038745292362, 3.1645718090975947,\n                           0.09849927750115128, 0.6309168298818285, -3.543955936277695, -0.011104837775402387,\n                           3.971952619691269, -0.9002290867621936, 0.08716092074840454, -4.769920436676644,\n                           -1.3273071911156626, -0.1112603224246671, -0.9092099623663015, 6.004830175660711,\n                           0.019130780231922273, 4.40658962854657, -4.938573816865572, -0.07157607379005348,\n                           5.787979426256242, -0.31630371399572454, -0.04700963415910131, -6.3516212036848465,\n                           -0.38811330676312206, -0.6366041853019437, -4.641419060145512, -3.160341532809756,\n                           -0.6403836375528593],\n              'mass_numbers': [12, 12, 12, 12, 12, 14, 14, 14, 14, 14, 1, 1, 1, 1, 1],\n              'masses': [12.0, 12.0, 12.0, 12.0, 12.0, 14.00307400443, 14.00307400443, 14.00307400443, 14.00307400443,\n                         14.00307400443, 1.00782503223, 1.00782503223, 1.00782503223, 1.00782503223, 1.00782503223],\n              'molecular_charge': 0.0,\n              'molecular_multiplicity': 1,\n              'name': 'C5H5N5',\n              'provenance': {'creator': 'QCElemental',\n                             'routine': 'qcelemental.molparse.from_string',\n                             'version': 'v0.19.0'},\n              'real': [True, True, True, True, True, True, True, True, True, True, True, True, True, True, True],\n              'symbols': ['C', 'C', 'C', 'C', 'C', 'N', 'N', 'N', 'N', 'N', 'H', 'H', 'H', 'H', 'H'],\n              'validated': True},\n 'protocols': {},\n 'provenance': {'creator': 'QCElemental', 'routine': 'qcelemental.models.results', 'version': 'v0.16.0'},\n 'schema_name': 'qcschema_input',\n 'schema_version': 1}\n--------------------------------------------------------------------------\n\nScratch directory: /scratch/f97/kraus/scratch/tmp5brm05t2_psi_scratch/\n\n*** tstart() called on z140\n*** at Thu May 20 23:13:59 2021\n\n   => Loading Basis Set <=\n\n    Name: DEF2-QZVPD\n    Role: ORBITAL\n    Keyword: BASIS\n    atoms 1-5   entry C          line   201 file /group/f97/kraus/miniconda3/envs/psi4-1.4a2.dev923/share/psi4/basis/def2-qzvpd.gbs \n    atoms 6-10  entry N          line   253 file /group/f97/kraus/miniconda3/envs/psi4-1.4a2.dev923/share/psi4/basis/def2-qzvpd.gbs \n    atoms 11-15 entry H          line    14 file /group/f97/kraus/miniconda3/envs/psi4-1.4a2.dev923/share/psi4/basis/def2-qzvpd.gbs \n\n   => B3LYP-D3(BJ): Empirical Dispersion <=\n\n    Grimme's -D3 (BJ-damping) Dispersion Correction\n    Grimme S.; Ehrlich S.; Goerigk L. (2011), J. Comput. Chem., 32: 1456\n\n        s6 =       1.000000\n        s8 =       1.988900\n        a1 =       0.398100\n        a2 =       4.421100\n\n\n         ---------------------------------------------------------\n                                   SCF\n               by Justin Turney, Rob Parrish, Andy Simmonett\n                          and Daniel G. A. Smith\n                              RKS Reference\n                       16 Threads, 858306 MiB Core\n         ---------------------------------------------------------\n\n  ==> Geometry <==\n\n    Molecular point group: c1\n    Full point group: C1\n\n    Geometry (in Bohr), charge = 0, multiplicity = 1:\n\n       Center              X                  Y                   Z               Mass       \n    ------------   -----------------  -----------------  -----------------  -----------------\n         C           -2.600514844651     0.057862058845    -0.058347990912    12.000000000000\n         C           -0.181665404065    -1.051407176799     0.039917767612    12.000000000000\n         C            1.861128537555     0.634228527110     0.085271194623    12.000000000000\n         C           -0.646538030928     3.967705412417     0.032358863110    12.000000000000\n         C            3.108347780357    -3.362542228234     0.004012971228    12.000000000000\n         N           -2.785708004946     2.597653971460    -0.052678812535    14.003074004430\n         N            1.755303874529     3.164571809098     0.098499277501    14.003074004430\n         N            0.630916829882    -3.543955936278    -0.011104837775    14.003074004430\n         N            3.971952619691    -0.900229086762     0.087160920748    14.003074004430\n         N           -4.769920436677    -1.327307191116    -0.111260322425    14.003074004430\n         H           -0.909209962366     6.004830175661     0.019130780232     1.007825032230\n         H            4.406589628547    -4.938573816866    -0.071576073790     1.007825032230\n         H            5.787979426256    -0.316303713996    -0.047009634159     1.007825032230\n         H           -6.351621203685    -0.388113306763    -0.636604185302     1.007825032230\n         H           -4.641419060146    -3.160341532810    -0.640383637553     1.007825032230\n\n  Running in c1 symmetry.\n\n  Rotational constants: A =      0.07881  B =      0.05206  C =      0.03137 [cm^-1]\n  Rotational constants: A =   2362.65971  B =   1560.84141  C =    940.48329 [MHz]\n  Nuclear repulsion =  501.223593903137669\n\n  Charge       = 0\n  Multiplicity = 1\n  Electrons    = 70\n  Nalpha       = 35\n  Nbeta        = 35\n\n  ==> Algorithm <==\n\n  SCF Algorithm Type is DF.\n  DIIS enabled.\n  MOM disabled.\n  Fractional occupation disabled.\n  Guess Type is SAP.\n  Energy threshold   = 1.00e-06\n  Density threshold  = 1.00e-06\n  Integral threshold = 0.00e+00\n\n  ==> Primary Basis <==\n\n  Basis Set: DEF2-QZVPD\n    Blend: DEF2-QZVPD\n    Number of shells: 245\n    Number of basis function: 795\n    Number of Cartesian functions: 980\n    Spherical Harmonics?: true\n    Max angular momentum: 4\n\n  ==> DFT Potential <==\n\n   => Composite Functional: B3LYP-D3BJ <= \n\n    B3LYP-d3bj Hyb-GGA Exchange-Correlation Functional\n\n    P. J. Stephens, F. J. Devlin, C. F. Chabalowski, and M. J. Frisch, J. Phys. Chem. 98, 11623 (1994)\n\n    Deriv               =              1\n    GGA                 =           TRUE\n    Meta                =          FALSE\n\n    Exchange Hybrid     =           TRUE\n    MP2 Hybrid          =          FALSE\n\n   => Exchange Functionals <=\n\n    0.0800   Slater exchange\n    0.7200         Becke 88\n\n   => Exact (HF) Exchange <=\n\n    0.2000               HF \n\n   => Correlation Functionals <=\n\n    0.1900   Vosko, Wilk & Nusair (VWN5_RPA)\n    0.8100   Lee, Yang & Parr\n\n   => LibXC Density Thresholds  <==\n\n    XC_HYB_GGA_XC_B3LYP:  1.00E-32 \n\n   => Molecular Quadrature <=\n\n    Radial Scheme          =       TREUTLER\n    Pruning Scheme         =           NONE\n    Nuclear Scheme         =       TREUTLER\n\n    BS radius alpha        =              1\n    Pruning alpha          =              1\n    Radial Points          =             75\n    Spherical Points       =            302\n    Total Points           =         317513\n    Total Blocks           =           2382\n    Max Points             =            256\n    Max Functions          =            675\n    Weights Tolerance      =       1.00E-15\n\n   => Loading Basis Set <=\n\n    Name: (DEF2-QZVPD AUX)\n    Role: JKFIT\n    Keyword: DF_BASIS_SCF\n    atoms 1-5   entry C          line   198 file /group/f97/kraus/miniconda3/envs/psi4-1.4a2.dev923/share/psi4/basis/def2-universal-jkfit.gbs \n    atoms 6-10  entry N          line   258 file /group/f97/kraus/miniconda3/envs/psi4-1.4a2.dev923/share/psi4/basis/def2-universal-jkfit.gbs \n    atoms 11-15 entry H          line    18 file /group/f97/kraus/miniconda3/envs/psi4-1.4a2.dev923/share/psi4/basis/def2-universal-jkfit.gbs \n\n  ==> Integral Setup <==\n\n  DFHelper Memory: AOs need 3.692 GiB; user supplied 624.214 GiB. Using in-core AOs.\n\n  ==> MemDFJK: Density-Fitted J/K Matrices <==\n\n    J tasked:                   Yes\n    K tasked:                   Yes\n    wK tasked:                   No\n    OpenMP threads:              16\n    Memory [MiB]:            639195\n    Algorithm:                 Core\n    Schwarz Cutoff:           1E-12\n    Mask sparsity (%):      12.9447\n    Fitting Condition:        1E-10\n\n   => Auxiliary Basis Set <=\n\n  Basis Set: (DEF2-QZVPD AUX)\n    Blend: DEF2-UNIVERSAL-JKFIT\n    Number of shells: 280\n    Number of basis function: 850\n    Number of Cartesian functions: 1010\n    Spherical Harmonics?: true\n    Max angular momentum: 4\n\n  Cached 100.0% of DFT collocation blocks in 4.429 [GiB].\n\n  Minimum eigenvalue in the overlap matrix is 3.3239328313E-07.\n  Reciprocal condition number of the overlap matrix is 1.9711836676E-08.\n    Using symmetric orthogonalization.\n\n  ==> Pre-Iterations <==\n\n  SCF Guess: Superposition of Atomic Potentials (doi:10.1021/acs.jctc.8b01089).\n\n  ==> SAP guess <==\n\n   => Molecular Quadrature <=\n\n    Radial Scheme          =       TREUTLER\n    Pruning Scheme         =           NONE\n    Nuclear Scheme         =       TREUTLER\n\n    BS radius alpha        =              1\n    Pruning alpha          =              1\n    Radial Points          =             75\n    Spherical Points       =            302\n    Total Points           =         317512\n    Total Blocks           =           2378\n    Max Points             =            256\n    Max Functions          =            675\n    Weights Tolerance      =       1.00E-15\n\n   -------------------------------------------------------\n    Irrep   Nso     Nmo     Nalpha   Nbeta   Ndocc  Nsocc\n   -------------------------------------------------------\n     A        795     795      35      35      35       0\n   -------------------------------------------------------\n    Total     795     795      35      35      35       0\n   -------------------------------------------------------\n\n  ==> Iterations <==\n\n                           Total Energy        Delta E     RMS |[F,P]|\n\n   @DF-RKS iter   1:  -464.46558030934568   -4.64466e+02   3.23212e-03 DIIS\n   @DF-RKS iter   2:  -444.48169134122782    1.99839e+01   7.04461e-03 DIIS\n   @DF-RKS iter   3:  -467.16072198873212   -2.26790e+01   1.10041e-03 DIIS\n   @DF-RKS iter   4:  -467.01052770169736    1.50194e-01   1.37314e-03 DIIS\n   @DF-RKS iter   5:  -467.53941888202712   -5.28891e-01   2.69815e-04 DIIS\n   @DF-RKS iter   6:  -467.55296051126538   -1.35416e-02   1.62665e-04 DIIS\n   @DF-RKS iter   7:  -467.56006706241288   -7.10655e-03   3.30502e-05 DIIS\n   @DF-RKS iter   8:  -467.56027707468945   -2.10012e-04   1.89796e-05 DIIS\n   @DF-RKS iter   9:  -467.56037975596973   -1.02681e-04   3.35620e-06 DIIS\n   @DF-RKS iter  10:  -467.56038212333084   -2.36736e-06   1.58639e-06 DIIS\n   @DF-RKS iter  11:  -467.56038276691436   -6.43584e-07   3.51816e-07 DIIS\n  Energy and wave function converged.\n\n\n  ==> Post-Iterations <==\n\n    Orbital Energies [Eh]\n    ---------------------\n\n    Doubly Occupied:                                                      \n\n       1A    -14.390551     2A    -14.345630     3A    -14.326097  \n       4A    -14.318902     5A    -14.313174     6A    -10.269327  \n       7A    -10.259819     8A    -10.255218     9A    -10.241799  \n      10A    -10.210440    11A     -1.041588    12A     -0.983565  \n      13A     -0.941670    14A     -0.895428    15A     -0.864314  \n      16A     -0.771841    17A     -0.673213    18A     -0.657197  \n      19A     -0.636188    20A     -0.586874    21A     -0.555307  \n      22A     -0.521101    23A     -0.505257    24A     -0.474813  \n      25A     -0.466449    26A     -0.449685    27A     -0.427611  \n      28A     -0.411326    29A     -0.367119    30A     -0.330210  \n      31A     -0.307409    32A     -0.296725    33A     -0.278640  \n      34A     -0.263881    35A     -0.235039  \n\n    Virtual:                                                              \n\n      36A     -0.039942    37A     -0.012536    38A     -0.010566  \n      39A      0.004572    40A      0.016998    41A      0.021472  \n      42A      0.030927    43A      0.037980    44A      0.055850  \n      45A      0.067518    46A      0.075380    47A      0.083943  \n      48A      0.090381    49A      0.094137    50A      0.106229  \n      51A      0.111141    52A      0.120700    53A      0.121283  \n      54A      0.130448    55A      0.137434    56A      0.147101  \n      57A      0.154022    58A      0.156832    59A      0.162344  \n      60A      0.163226    61A      0.166987    62A      0.170656  \n      63A      0.172718    64A      0.184703    65A      0.191488  \n      66A      0.194841    67A      0.204262    68A      0.209255  \n      69A      0.210170    70A      0.214795    71A      0.222645  \n      72A      0.228419    73A      0.238414    74A      0.239451  \n      75A      0.242732    76A      0.251797    77A      0.258387  \n      78A      0.262118    79A      0.266302    80A      0.269642  \n      81A      0.278285    82A      0.286159    83A      0.288146  \n      84A      0.295058    85A      0.298389    86A      0.311169  \n      87A      0.312888    88A      0.314965    89A      0.327717  \n      90A      0.330827    91A      0.332460    92A      0.338403  \n      93A      0.343828    94A      0.346320    95A      0.351781  \n      96A      0.360100    97A      0.366276    98A      0.368750  \n      99A      0.369426   100A      0.373283   101A      0.385938  \n     102A      0.387901   103A      0.390914   104A      0.394620  \n     105A      0.405202   106A      0.408802   107A      0.412395  \n     108A      0.419914   109A      0.424006   110A      0.427467  \n     111A      0.430598   112A      0.439833   113A      0.446090  \n     114A      0.448568   115A      0.453497   116A      0.455759  \n     117A      0.457305   118A      0.465901   119A      0.469941  \n     120A      0.474779   121A      0.478993   122A      0.487864  \n     123A      0.489752   124A      0.503934   125A      0.505410  \n     126A      0.513005   127A      0.516279   128A      0.527053  \n     129A      0.532974   130A      0.536684   131A      0.541152  \n     132A      0.542751   133A      0.544143   134A      0.551778  \n     135A      0.556659   136A      0.568030   137A      0.574413  \n     138A      0.576708   139A      0.578129   140A      0.587595  \n     141A      0.593519   142A      0.594829   143A      0.600103  \n     144A      0.600443   145A      0.612523   146A      0.615348  \n     147A      0.629104   148A      0.640846   149A      0.642357  \n     150A      0.659601   151A      0.660699   152A      0.666770  \n     153A      0.672114   154A      0.675948   155A      0.686581  \n     156A      0.700331   157A      0.701156   158A      0.708383  \n     159A      0.709688   160A      0.720967   161A      0.735260  \n     162A      0.739230   163A      0.746427   164A      0.758097  \n     165A      0.767991   166A      0.776529   167A      0.780268  \n     168A      0.788665   169A      0.796273   170A      0.807800  \n     171A      0.822135   172A      0.823946   173A      0.836802  \n     174A      0.851421   175A      0.857860   176A      0.866335  \n     177A      0.872359   178A      0.882208   179A      0.885698  \n     180A      0.897170   181A      0.902085   182A      0.907978  \n     183A      0.920652   184A      0.924201   185A      0.936317  \n     186A      0.949396   187A      0.954254   188A      0.958527  \n     189A      0.963423   190A      0.980299   191A      0.983710  \n     192A      0.997245   193A      1.002891   194A      1.008712  \n     195A      1.037279   196A      1.041395   197A      1.059631  \n     198A      1.069482   199A      1.073800   200A      1.088944  \n     201A      1.096445   202A      1.104415   203A      1.109406  \n     204A      1.118343   205A      1.127604   206A      1.140036  \n     207A      1.152729   208A      1.154293   209A      1.171995  \n     210A      1.177854   211A      1.197200   212A      1.205566  \n     213A      1.210733   214A      1.219563   215A      1.230574  \n     216A      1.243386   217A      1.255761   218A      1.263560  \n     219A      1.272578   220A      1.280438   221A      1.285041  \n     222A      1.295074   223A      1.295824   224A      1.301707  \n     225A      1.321576   226A      1.330298   227A      1.338192  \n     228A      1.341910   229A      1.362927   230A      1.368891  \n     231A      1.383972   232A      1.387361   233A      1.393359  \n     234A      1.408788   235A      1.415121   236A      1.421213  \n     237A      1.436756   238A      1.454397   239A      1.455544  \n     240A      1.458006   241A      1.478905   242A      1.488325  \n     243A      1.502459   244A      1.511666   245A      1.521910  \n     246A      1.539046   247A      1.558259   248A      1.574267  \n     249A      1.576873   250A      1.602689   251A      1.619172  \n     252A      1.636397   253A      1.661263   254A      1.674747  \n     255A      1.699624   256A      1.711488   257A      1.738106  \n     258A      1.747836   259A      1.756436   260A      1.780292  \n     261A      1.785463   262A      1.802114   263A      1.815206  \n     264A      1.839846   265A      1.844894   266A      1.860520  \n     267A      1.882356   268A      1.892438   269A      1.908230  \n     270A      1.935142   271A      1.941250   272A      1.946371  \n     273A      1.973606   274A      1.993108   275A      1.997740  \n     276A      2.002780   277A      2.016622   278A      2.027159  \n     279A      2.039318   280A      2.045067   281A      2.055547  \n     282A      2.074602   283A      2.081076   284A      2.097140  \n     285A      2.113029   286A      2.115241   287A      2.129754  \n     288A      2.138920   289A      2.146467   290A      2.163347  \n     291A      2.172417   292A      2.178333   293A      2.187013  \n     294A      2.192576   295A      2.194498   296A      2.199523  \n     297A      2.212432   298A      2.222476   299A      2.231006  \n     300A      2.244039   301A      2.258926   302A      2.277173  \n     303A      2.293893   304A      2.298246   305A      2.309154  \n     306A      2.320264   307A      2.328255   308A      2.332562  \n     309A      2.358335   310A      2.361143   311A      2.371978  \n     312A      2.391592   313A      2.398300   314A      2.401283  \n     315A      2.416132   316A      2.443686   317A      2.449504  \n     318A      2.478883   319A      2.484494   320A      2.489569  \n     321A      2.513029   322A      2.523878   323A      2.533456  \n     324A      2.549556   325A      2.571040   326A      2.576754  \n     327A      2.593041   328A      2.597125   329A      2.599879  \n     330A      2.619541   331A      2.642353   332A      2.654316  \n     333A      2.662625   334A      2.670701   335A      2.692470  \n     336A      2.708226   337A      2.724610   338A      2.728088  \n     339A      2.750240   340A      2.760251   341A      2.762944  \n     342A      2.779484   343A      2.781886   344A      2.807436  \n     345A      2.811016   346A      2.817149   347A      2.827314  \n     348A      2.842398   349A      2.857358   350A      2.874119  \n     351A      2.880274   352A      2.889368   353A      2.904370  \n     354A      2.917068   355A      2.920865   356A      2.933928  \n     357A      2.944738   358A      2.960533   359A      2.966747  \n     360A      2.979005   361A      2.990484   362A      3.001299  \n     363A      3.014813   364A      3.028700   365A      3.038963  \n     366A      3.060679   367A      3.080240   368A      3.097061  \n     369A      3.104546   370A      3.116069   371A      3.144407  \n     372A      3.149218   373A      3.167606   374A      3.172564  \n     375A      3.189261   376A      3.196323   377A      3.212558  \n     378A      3.229883   379A      3.250913   380A      3.269270  \n     381A      3.276542   382A      3.283568   383A      3.316209  \n     384A      3.320923   385A      3.332639   386A      3.349088  \n     387A      3.366566   388A      3.367690   389A      3.373803  \n     390A      3.388379   391A      3.407790   392A      3.440363  \n     393A      3.452395   394A      3.477944   395A      3.493983  \n     396A      3.528056   397A      3.530943   398A      3.536438  \n     399A      3.557525   400A      3.562997   401A      3.575472  \n     402A      3.580588   403A      3.600067   404A      3.618121  \n     405A      3.641443   406A      3.667529   407A      3.678085  \n     408A      3.692738   409A      3.708125   410A      3.710767  \n     411A      3.730741   412A      3.745036   413A      3.769858  \n     414A      3.795170   415A      3.811029   416A      3.825694  \n     417A      3.851141   418A      3.854722   419A      3.865096  \n     420A      3.895511   421A      3.909308   422A      3.914333  \n     423A      3.945524   424A      3.983567   425A      3.998340  \n     426A      4.010420   427A      4.019991   428A      4.051036  \n     429A      4.060057   430A      4.076129   431A      4.095710  \n     432A      4.100247   433A      4.147787   434A      4.159571  \n     435A      4.175930   436A      4.197809   437A      4.214844  \n     438A      4.249349   439A      4.257060   440A      4.283611  \n     441A      4.325831   442A      4.353739   443A      4.385997  \n     444A      4.428523   445A      4.437538   446A      4.461121  \n     447A      4.482948   448A      4.493307   449A      4.505420  \n     450A      4.547795   451A      4.589992   452A      4.621802  \n     453A      4.648180   454A      4.664022   455A      4.713716  \n     456A      4.718848   457A      4.831881   458A      4.858687  \n     459A      4.908528   460A      4.940230   461A      4.961498  \n     462A      4.973172   463A      5.009317   464A      5.057169  \n     465A      5.076194   466A      5.091637   467A      5.141018  \n     468A      5.197467   469A      5.210074   470A      5.224453  \n     471A      5.278124   472A      5.297423   473A      5.323007  \n     474A      5.356973   475A      5.359004   476A      5.386808  \n     477A      5.396723   478A      5.410892   479A      5.420342  \n     480A      5.426050   481A      5.432136   482A      5.452546  \n     483A      5.474530   484A      5.489553   485A      5.492597  \n     486A      5.502448   487A      5.511066   488A      5.521925  \n     489A      5.576882   490A      5.580198   491A      5.589758  \n     492A      5.603308   493A      5.606107   494A      5.635416  \n     495A      5.660638   496A      5.685275   497A      5.702659  \n     498A      5.712115   499A      5.745115   500A      5.768512  \n     501A      5.771848   502A      5.790154   503A      5.815063  \n     504A      5.842560   505A      5.850244   506A      5.875484  \n     507A      5.908619   508A      5.922338   509A      5.931210  \n     510A      5.943227   511A      5.955400   512A      5.960583  \n     513A      5.994371   514A      6.016714   515A      6.022872  \n     516A      6.044483   517A      6.054504   518A      6.068381  \n     519A      6.076213   520A      6.088748   521A      6.104612  \n     522A      6.116869   523A      6.145307   524A      6.147791  \n     525A      6.159252   526A      6.183894   527A      6.196689  \n     528A      6.209790   529A      6.240992   530A      6.258166  \n     531A      6.277218   532A      6.284140   533A      6.308673  \n     534A      6.317818   535A      6.338595   536A      6.364688  \n     537A      6.366467   538A      6.375046   539A      6.391123  \n     540A      6.408469   541A      6.426432   542A      6.431744  \n     543A      6.459768   544A      6.489842   545A      6.495854  \n     546A      6.513331   547A      6.542599   548A      6.553413  \n     549A      6.569221   550A      6.581241   551A      6.593895  \n     552A      6.615707   553A      6.635729   554A      6.647076  \n     555A      6.667063   556A      6.696054   557A      6.704700  \n     558A      6.713335   559A      6.722798   560A      6.735253  \n     561A      6.743231   562A      6.761705   563A      6.803730  \n     564A      6.811895   565A      6.848914   566A      6.860927  \n     567A      6.873247   568A      6.903724   569A      6.920583  \n     570A      6.948691   571A      6.960300   572A      6.983265  \n     573A      6.999273   574A      7.017538   575A      7.042881  \n     576A      7.078633   577A      7.104012   578A      7.125562  \n     579A      7.139134   580A      7.150791   581A      7.180317  \n     582A      7.200720   583A      7.222830   584A      7.247408  \n     585A      7.260184   586A      7.269174   587A      7.307288  \n     588A      7.324167   589A      7.378595   590A      7.402278  \n     591A      7.415348   592A      7.438002   593A      7.464446  \n     594A      7.483962   595A      7.492297   596A      7.537119  \n     597A      7.546012   598A      7.563251   599A      7.574746  \n     600A      7.600841   601A      7.606695   602A      7.622865  \n     603A      7.628832   604A      7.662327   605A      7.681767  \n     606A      7.702411   607A      7.711288   608A      7.734443  \n     609A      7.753077   610A      7.760954   611A      7.776594  \n     612A      7.794857   613A      7.808371   614A      7.837077  \n     615A      7.851978   616A      7.866227   617A      7.880901  \n     618A      7.910116   619A      7.931610   620A      7.942655  \n     621A      7.945653   622A      7.961074   623A      7.971884  \n     624A      7.984198   625A      7.997971   626A      8.000560  \n     627A      8.013892   628A      8.032968   629A      8.042294  \n     630A      8.064991   631A      8.081849   632A      8.095517  \n     633A      8.110948   634A      8.124831   635A      8.148044  \n     636A      8.154705   637A      8.186531   638A      8.190360  \n     639A      8.212567   640A      8.230534   641A      8.257723  \n     642A      8.266194   643A      8.285303   644A      8.294131  \n     645A      8.309006   646A      8.321424   647A      8.342932  \n     648A      8.357262   649A      8.365959   650A      8.382652  \n     651A      8.404057   652A      8.422621   653A      8.429667  \n     654A      8.445952   655A      8.456370   656A      8.479750  \n     657A      8.500586   658A      8.515099   659A      8.527184  \n     660A      8.547128   661A      8.551477   662A      8.572323  \n     663A      8.602750   664A      8.609480   665A      8.628898  \n     666A      8.673206   667A      8.691667   668A      8.703980  \n     669A      8.746693   670A      8.758279   671A      8.781783  \n     672A      8.794418   673A      8.800423   674A      8.802994  \n     675A      8.862121   676A      8.875498   677A      8.882165  \n     678A      8.926506   679A      8.933403   680A      8.947437  \n     681A      8.993961   682A      9.022550   683A      9.058725  \n     684A      9.087468   685A      9.096533   686A      9.122256  \n     687A      9.143353   688A      9.163078   689A      9.181019  \n     690A      9.188996   691A      9.228734   692A      9.246899  \n     693A      9.259863   694A      9.274172   695A      9.282838  \n     696A      9.289089   697A      9.310469   698A      9.326280  \n     699A      9.351001   700A      9.369414   701A      9.401701  \n     702A      9.408375   703A      9.440193   704A      9.495942  \n     705A      9.526018   706A      9.529340   707A      9.594135  \n     708A      9.610794   709A      9.648563   710A      9.675776  \n     711A      9.690384   712A      9.741400   713A      9.751945  \n     714A      9.809197   715A      9.856016   716A      9.872259  \n     717A      9.887700   718A      9.902676   719A      9.909875  \n     720A      9.968935   721A      9.987651   722A      9.998524  \n     723A     10.010777   724A     10.039712   725A     10.065943  \n     726A     10.105899   727A     10.127375   728A     10.135869  \n     729A     10.183030   730A     10.194061   731A     10.258921  \n     732A     10.278626   733A     10.340961   734A     10.357632  \n     735A     10.416579   736A     10.461908   737A     10.529564  \n     738A     10.550840   739A     10.578634   740A     10.590579  \n     741A     10.663896   742A     10.704190   743A     10.722100  \n     744A     10.783551   745A     10.806364   746A     10.963450  \n     747A     10.977664   748A     11.172527   749A     11.241241  \n     750A     11.416324   751A     11.438808   752A     11.456648  \n     753A     11.560963   754A     11.602775   755A     11.629603  \n     756A     11.639067   757A     11.686235   758A     11.705011  \n     759A     11.731120   760A     11.754405   761A     11.846347  \n     762A     11.921357   763A     11.973098   764A     12.015704  \n     765A     12.074592   766A     12.113988   767A     12.214616  \n     768A     12.236444   769A     12.307682   770A     12.491455  \n     771A     12.750423   772A     12.850365   773A     14.663663  \n     774A     15.025173   775A     15.159542   776A     28.178614  \n     777A     28.523259   778A     28.610637   779A     28.751247  \n     780A     28.897542   781A     37.800354   782A     37.820674  \n     783A     37.873431   784A     38.160712   785A     38.347325  \n     786A    147.278997   787A    147.594482   788A    147.657921  \n     789A    147.800996   790A    147.961173   791A    197.154456  \n     792A    197.177161   793A    197.235459   794A    197.541156  \n     795A    197.713443  \n\n    Final Occupation by Irrep:\n              A \n    DOCC [    35 ]\n\n  @DF-RKS Final Energy:  -467.56038276691436\n\n   => Energetics <=\n\n    Nuclear Repulsion Energy =            501.2235939031376688\n    One-Electron Energy =               -1626.7612160395303817\n    Two-Electron Energy =                 709.4880707265403998\n    DFT Exchange-Correlation Energy =     -51.4832433070621676\n    Empirical Dispersion Energy =          -0.0275880500000000\n    VV10 Nonlocal Energy =                  0.0000000000000000\n    Total Energy =                       -467.5603827669144152\n\nComputation Completed\n\n\nProperties will be evaluated at   0.000000,   0.000000,   0.000000 [a0]\n\nProperties computed using the SCF density matrix\n\n  Nuclear Dipole Moment: [e a0]\n     X:    -0.8453      Y:    -1.3883      Z:    -0.6829\n\n  Electronic Dipole Moment: [e a0]\n     X:     1.4432      Y:     0.6468      Z:     0.3251\n\n  Dipole Moment: [e a0]\n     X:     0.5979      Y:    -0.7415      Z:    -0.3578     Total:     1.0175\n\n  Dipole Moment: [D]\n     X:     1.5196      Y:    -1.8847      Z:    -0.9094     Total:     2.5862\n\n\n*** tstop() called on z140 at Thu May 20 23:14:45 2021\nModule time:\n\tuser time   =     521.25 seconds =       8.69 minutes\n\tsystem time =      19.28 seconds =       0.32 minutes\n\ttotal time  =         46 seconds =       0.77 minutes\nTotal time:\n\tuser time   =     521.25 seconds =       8.69 minutes\n\tsystem time =      19.28 seconds =       0.32 minutes\n\ttotal time  =         46 seconds =       0.77 minutes\n\n    Psi4 stopped on: Thursday, 20 May 2021 11:14PM\n    Psi4 wall time for execution: 0:00:45.59\n\n*** Psi4 exiting successfully. Buy a developer a beer!\n",
 "stderr": null,
 "success": true,
 "error": null,
 "tag": "b3lyp-d3bj def2-qzvpd c3a_a"
}