{
 "id": null,
 "schema_name": "qcschema_output",
 "schema_version": 1,
 "molecule": {
  "validated": true,
  "symbols": [
   "N",
   "C",
   "N",
   "C",
   "C",
   "O",
   "N",
   "C",
   "N",
   "N",
   "C",
   "H",
   "H",
   "H",
   "H",
   "H",
   "N",
   "C",
   "N",
   "C",
   "C",
   "O",
   "N",
   "C",
   "N",
   "N",
   "C",
   "H",
   "H",
   "H",
   "H",
   "H"
  ],
  "geometry": [
   0.03907648617206276,
   4.630398892669814,
   -6.480050255281716,
   1.8721108278661558,
   3.46821732551325,
   -7.753725663840304,
   2.197143721444903,
   1.0947213119382198,
   -7.086652341553679,
   0.41702171126362814,
   0.686540468839328,
   -5.213933751224976,
   -0.13855776962097316,
   -1.494203479939004,
   -3.8155364183861793,
   0.8667765291225913,
   -3.623924823329977,
   -3.940258342666402,
   -2.120880475226234,
   -1.0274411269509216,
   -2.0788781090904447,
   -3.2830620423828,
   1.2950322812367492,
   -1.714160966877065,
   -4.8704319877673745,
   1.4613281802770384,
   0.13399118382067793,
   -2.82196886777109,
   3.298141974222047,
   -3.0766535033321727,
   -0.9171249333095992,
   2.854056334739458,
   -4.783076194620582,
   -0.6657913586237085,
   6.385954463220139,
   -6.750281091222197,
   -2.6065400894688984,
   -2.5203247660626054,
   -0.9204759941847892,
   2.943585541000744,
   4.403631757614879,
   -9.222042863321027,
   -5.25782584348623,
   0.01946714655271604,
   1.358533713117348,
   -5.798287515367168,
   3.1148385400526384,
   0.33808160537013004,
   0.30741759598707447,
   3.162081693189084,
   3.441011903371882,
   1.9968327521463718,
   3.24333991658377,
   1.528609064408551,
   2.883114304986093,
   1.0531473371781466,
   1.0202727366603972,
   1.8003012350987597,
   -0.5663479523392116,
   2.7380337847015657,
   2.1480108421829986,
   -3.283774120747569,
   3.129207092671331,
   3.518062283139925,
   -4.786106390486541,
   1.8026193525999423,
   0.7515032354696634,
   -4.1624967690854575,
   5.198457200047651,
   -0.8339769837894528,
   -2.645046690342823,
   6.617641520266497,
   -1.9867099203187286,
   -3.8166768881266773,
   8.54516216823347,
   -1.1797968647482384,
   -0.18840272724764634,
   6.1678867024075235,
   0.20726211133780886,
   0.6940993733411591,
   4.240366054440537,
   -0.7054756072583213,
   4.603942726913407,
   4.181784544551343,
   0.798746388606109,
   -6.095686595428816,
   5.531048998128236,
   2.420131404248926,
   4.970549595252223,
   0.519495313414078,
   -1.8714366266658025,
   -5.729079727089997,
   8.84751834830673,
   -3.266054507253679,
   -2.7924453281285326,
   9.520260848969722
  ],
  "name": "C10H10N10O2",
  "molecular_charge": 0.0,
  "molecular_multiplicity": 1,
  "masses": [
   14.00307400443,
   12.0,
   14.00307400443,
   12.0,
   12.0,
   15.99491461957,
   14.00307400443,
   12.0,
   14.00307400443,
   14.00307400443,
   12.0,
   1.00782503223,
   1.00782503223,
   1.00782503223,
   1.00782503223,
   1.00782503223,
   14.00307400443,
   12.0,
   14.00307400443,
   12.0,
   12.0,
   15.99491461957,
   14.00307400443,
   12.0,
   14.00307400443,
   14.00307400443,
   12.0,
   1.00782503223,
   1.00782503223,
   1.00782503223,
   1.00782503223,
   1.00782503223
  ],
  "real": [
   true,
   true,
   true,
   true,
   true,
   true,
   true,
   true,
   true,
   true,
   true,
   true,
   true,
   true,
   true,
   true,
   true,
   true,
   true,
   true,
   true,
   true,
   true,
   true,
   true,
   true,
   true,
   true,
   true,
   true,
   true,
   true
  ],
  "atom_labels": [
   "",
   "",
   "",
   "",
   "",
   "",
   "",
   "",
   "",
   "",
   "",
   "",
   "",
   "",
   "",
   "",
   "",
   "",
   "",
   "",
   "",
   "",
   "",
   "",
   "",
   "",
   "",
   "",
   "",
   "",
   "",
   ""
  ],
  "atomic_numbers": [
   7,
   6,
   7,
   6,
   6,
   8,
   7,
   6,
   7,
   7,
   6,
   1,
   1,
   1,
   1,
   1,
   7,
   6,
   7,
   6,
   6,
   8,
   7,
   6,
   7,
   7,
   6,
   1,
   1,
   1,
   1,
   1
  ],
  "mass_numbers": [
   14,
   12,
   14,
   12,
   12,
   16,
   14,
   12,
   14,
   14,
   12,
   1,
   1,
   1,
   1,
   1,
   14,
   12,
   14,
   12,
   12,
   16,
   14,
   12,
   14,
   14,
   12,
   1,
   1,
   1,
   1,
   1
  ],
  "fragments": [
   [
    0,
    1,
    2,
    3,
    4,
    5,
    6,
    7,
    8,
    9,
    10,
    11,
    12,
    13,
    14,
    15,
    16,
    17,
    18,
    19,
    20,
    21,
    22,
    23,
    24,
    25,
    26,
    27,
    28,
    29,
    30,
    31
   ]
  ],
  "fragment_charges": [
   0.0
  ],
  "fragment_multiplicities": [
   1
  ],
  "fix_com": false,
  "fix_orientation": false,
  "provenance": {
   "creator": "QCElemental",
   "version": "v0.19.0",
   "routine": "qcelemental.molparse.from_string"
  }
 },
 "driver": "energy",
 "model": {
  "method": "dsd-blyp-d3bj",
  "basis": "pcseg-1"
 },
 "keywords": {},
 "protocols": {},
 "extras": {
  "qcvars": {
   "2-BODY DISPERSION CORRECTION ENERGY": -0.03876837,
   "CURRENT DIPOLE X": -9.53488146286073,
   "CURRENT DIPOLE Y": 4.999461786999537,
   "CURRENT DIPOLE Z": 9.084034478761973,
   "CURRENT ENERGY": -1083.3117769672958,
   "CURRENT REFERENCE ENERGY": -1081.6061882016625,
   "DFT FUNCTIONAL TOTAL ENERGY": -1081.5674198316622,
   "DFT TOTAL ENERGY": -1083.3117769672958,
   "DFT VV10 ENERGY": 0.0,
   "DFT XC ENERGY": -43.183654887485176,
   "DISPERSION CORRECTION ENERGY": -0.03876837,
   "DOUBLE-HYBRID CORRECTION ENERGY": -1.705588765633419,
   "DSD-BLYP-D3BJ DISPERSION CORRECTION ENERGY": -0.03876837,
   "DSD-BLYP-D3BJ DOUBLE-HYBRID CORRECTION ENERGY": -1.705588765633419,
   "DSD-BLYP-D3BJ TOTAL ENERGY": -1083.3117769672958,
   "NUCLEAR REPULSION ENERGY": 1842.1167887086447,
   "ONE-ELECTRON ENERGY": -5135.81759824181,
   "PCM POLARIZATION ENERGY": 0.0,
   "PE ENERGY": 0.0,
   "SCF DIPOLE X": -9.53488146286073,
   "SCF DIPOLE Y": 4.999461786999537,
   "SCF DIPOLE Z": 9.084034478761973,
   "SCF ITERATION ENERGY": -1081.6061882016625,
   "SCF ITERATIONS": 10.0,
   "SCF TOTAL ENERGY": -1081.6061882016625,
   "TWO-ELECTRON ENERGY": 2255.3170445889878,
   "XC GRID RADIAL POINTS": 75.0,
   "XC GRID SPHERICAL POINTS": 302.0,
   "XC GRID TOTAL POINTS": 655231.0,
   "CURRENT DIPOLE": [
    -3.7513110152084197,
    1.9669396147960134,
    3.573934163255849
   ],
   "SCF DIPOLE": [
    -3.7513110152084197,
    1.9669396147960134,
    3.573934163255849
   ]
  }
 },
 "provenance": {
  "creator": "Psi4",
  "version": "1.4a2.dev923",
  "routine": "psi4.schema_runner.run_qcschema",
  "username": "ubuntu",
  "wall_time": 38.4588189125061,
  "nthreads": 16,
  "memory": 100.0,
  "cpu": "AMD EPYC Processor (with IBPB)",
  "hostname": "bignimbus",
  "qcengine_version": "v0.17.0"
 },
 "properties": {
  "calcinfo_nbasis": 358,
  "calcinfo_nmo": 358,
  "calcinfo_nalpha": 78,
  "calcinfo_nbeta": 78,
  "calcinfo_natom": 32,
  "nuclear_repulsion_energy": 1842.1167887086447,
  "return_energy": -1083.3117769672958,
  "scf_one_electron_energy": -5135.81759824181,
  "scf_two_electron_energy": 2255.3170445889878,
  "scf_xc_energy": -43.183654887485176,
  "scf_dispersion_correction_energy": -0.03876837,
  "scf_dipole_moment": [
   -3.7513110152084197,
   1.9669396147960134,
   3.573934163255849
  ],
  "scf_total_energy": -1081.6061882016625,
  "scf_iterations": 10
 },
 "wavefunction": null,
 "return_result": -1083.3117769672958,
 "stdout": "\n    -----------------------------------------------------------------------\n          Psi4: An Open-Source Ab Initio Electronic Structure Package\n                               Psi4 1.4a2.dev923 \n\n                         Git: Rev {master} 5de566e \n\n\n    D. G. A. Smith, L. A. Burns, A. C. Simmonett, R. M. Parrish,\n    M. C. Schieber, R. Galvelis, P. Kraus, H. Kruse, R. Di Remigio,\n    A. Alenaizan, A. M. James, S. Lehtola, J. P. Misiewicz, M. Scheurer,\n    R. A. Shaw, J. B. Schriber, Y. Xie, Z. L. Glick, D. A. Sirianni,\n    J. S. O'Brien, J. M. Waldrop, A. Kumar, E. G. Hohenstein,\n    B. P. Pritchard, B. R. Brooks, H. F. Schaefer III, A. Yu. Sokolov,\n    K. Patkowski, A. E. DePrince III, U. Bozkaya, R. A. King,\n    F. A. Evangelista, J. M. Turney, T. D. Crawford, C. D. Sherrill,\n    J. Chem. Phys. 152(18) 184108 (2020). https://doi.org/10.1063/5.0006002\n\n                            Additional Code Authors\n    E. T. Seidl, C. L. Janssen, E. F. Valeev, M. L. Leininger,\n    J. F. Gonthier, R. M. Richard, H. R. McAlexander, M. Saitow, X. Wang,\n    P. Verma, and M. H. Lechner\n\n             Previous Authors, Complete List of Code Contributors,\n                       and Citations for Specific Modules\n    https://github.com/psi4/psi4/blob/master/codemeta.json\n    https://github.com/psi4/psi4/graphs/contributors\n    http://psicode.org/psi4manual/master/introduction.html#citing-psifour\n\n    -----------------------------------------------------------------------\n\n\n    Psi4 started on: Thursday, 13 May 2021 03:46AM\n\n    Process ID: 2196263\n    Host:       bignimbus\n    PSIDATADIR: /home/ubuntu/pk/Applications/miniconda3/envs/psi4-1.4a2.dev923/share/psi4\n    Memory:     93.1 GiB\n    Threads:    16\n    \n  ==> Input QCSchema <==\n\n--------------------------------------------------------------------------\n{'driver': 'energy',\n 'extras': {},\n 'id': None,\n 'keywords': {},\n 'model': {'basis': 'pcseg-1', 'method': 'dsd-blyp-d3bj'},\n 'molecule': {'atom_labels': ['', '', '', '', '', '', '', '', '', '', '', '', '', '', '', '', '', '', '', '', '', '',\n                              '', '', '', '', '', '', '', '', '', ''],\n              'atomic_numbers': [7, 6, 7, 6, 6, 8, 7, 6, 7, 7, 6, 1, 1, 1, 1, 1, 7, 6, 7, 6, 6, 8, 7, 6, 7, 7, 6, 1, 1,\n                                 1, 1, 1],\n              'fix_com': False,\n              'fix_orientation': False,\n              'fragment_charges': [0.0],\n              'fragment_multiplicities': [1],\n              'fragments': [[0, 1, 2, 3, 4, 5, 6, 7, 8, 9, 10, 11, 12, 13, 14, 15, 16, 17, 18, 19, 20, 21, 22, 23, 24,\n                             25, 26, 27, 28, 29, 30, 31]],\n              'geometry': [0.039076486172067604, 4.630398892669815, -6.480050255281711, 1.8721108278661607,\n                           3.468217325513251, -7.7537256638402985, 2.197143721444908, 1.0947213119382209,\n                           -7.086652341553673, 0.41702171126363297, 0.6865404688393291, -5.213933751224971,\n                           -0.13855776962096833, -1.494203479939003, -3.815536418386174, 0.8667765291225962,\n                           -3.6239248233299755, -3.9402583426663966, -2.120880475226229, -1.0274411269509205,\n                           -2.0788781090904394, -3.283062042382795, 1.2950322812367503, -1.7141609668770599,\n                           -4.87043198776737, 1.4613281802770395, 0.1339911838206831, -2.8219688677710852,\n                           3.298141974222048, -3.0766535033321674, -0.9171249333095943, 2.854056334739459,\n                           -4.783076194620577, -0.6657913586237036, 6.3859544632201395, -6.750281091222192,\n                           -2.6065400894688935, -2.520324766062604, -0.920475994184784, 2.9435855410007488,\n                           4.40363175761488, -9.222042863321022, -5.257825843486225, 0.019467146552717193,\n                           1.3585337131173532, -5.798287515367163, 3.1148385400526397, 0.3380816053701352,\n                           0.3074175959870793, 3.1620816931890854, 3.441011903371887, 1.9968327521463767,\n                           3.2433399165837713, 1.5286090644085562, 2.8831143049860977, 1.0531473371781477,\n                           1.0202727366604023, 1.8003012350987646, -0.5663479523392105, 2.738033784701571,\n                           2.1480108421830035, -3.2837741207475677, 3.1292070926713365, 3.5180622831399297,\n                           -4.78610639048654, 1.8026193525999474, 0.7515032354696682, -4.162496769085457,\n                           5.198457200047656, -0.833976983789448, -2.645046690342822, 6.617641520266503,\n                           -1.9867099203187237, -3.816676888126676, 8.545162168233475, -1.1797968647482335,\n                           -0.18840272724764517, 6.167886702407529, 0.2072621113378137, 0.6940993733411602,\n                           4.240366054440543, -0.7054756072583164, 4.603942726913408, 4.181784544551348,\n                           0.7987463886061139, -6.095686595428815, 5.531048998128242, 2.420131404248931,\n                           4.970549595252224, 0.5194953134140832, -1.8714366266657976, -5.729079727089996,\n                           8.847518348306735, -3.266054507253674, -2.7924453281285313, 9.520260848969727],\n              'mass_numbers': [14, 12, 14, 12, 12, 16, 14, 12, 14, 14, 12, 1, 1, 1, 1, 1, 14, 12, 14, 12, 12, 16, 14,\n                               12, 14, 14, 12, 1, 1, 1, 1, 1],\n              'masses': [14.00307400443, 12.0, 14.00307400443, 12.0, 12.0, 15.99491461957, 14.00307400443, 12.0,\n                         14.00307400443, 14.00307400443, 12.0, 1.00782503223, 1.00782503223, 1.00782503223,\n                         1.00782503223, 1.00782503223, 14.00307400443, 12.0, 14.00307400443, 12.0, 12.0, 15.99491461957,\n                         14.00307400443, 12.0, 14.00307400443, 14.00307400443, 12.0, 1.00782503223, 1.00782503223,\n                         1.00782503223, 1.00782503223, 1.00782503223],\n              'molecular_charge': 0.0,\n              'molecular_multiplicity': 1,\n              'name': 'C10H10N10O2',\n              'provenance': {'creator': 'QCElemental',\n                             'routine': 'qcelemental.molparse.from_string',\n                             'version': 'v0.19.0'},\n              'real': [True, True, True, True, True, True, True, True, True, True, True, True, True, True, True, True,\n                       True, True, True, True, True, True, True, True, True, True, True, True, True, True, True, True],\n              'symbols': ['N', 'C', 'N', 'C', 'C', 'O', 'N', 'C', 'N', 'N', 'C', 'H', 'H', 'H', 'H', 'H', 'N', 'C', 'N',\n                          'C', 'C', 'O', 'N', 'C', 'N', 'N', 'C', 'H', 'H', 'H', 'H', 'H'],\n              'validated': True},\n 'protocols': {},\n 'provenance': {'creator': 'QCElemental', 'routine': 'qcelemental.models.results', 'version': 'v0.17.0'},\n 'schema_name': 'qcschema_input',\n 'schema_version': 1}\n--------------------------------------------------------------------------\n\nScratch directory: /home/ubuntu/pk/scratch/tmpajpf8xg6_psi_scratch/\n\n*** tstart() called on bignimbus\n*** at Thu May 13 03:46:44 2021\n\n   => Loading Basis Set <=\n\n    Name: PCSEG-1\n    Role: ORBITAL\n    Keyword: BASIS\n    atoms 1, 3, 7, 9-10, 17, 19, 23, 25-26 entry N          line   111 file /home/ubuntu/pk/Applications/miniconda3/envs/psi4-1.4a2.dev923/share/psi4/basis/pcseg-1.gbs \n    atoms 2, 4-5, 8, 11, 18, 20-21, 24, 27 entry C          line    90 file /home/ubuntu/pk/Applications/miniconda3/envs/psi4-1.4a2.dev923/share/psi4/basis/pcseg-1.gbs \n    atoms 6, 22                            entry O          line   132 file /home/ubuntu/pk/Applications/miniconda3/envs/psi4-1.4a2.dev923/share/psi4/basis/pcseg-1.gbs \n    atoms 12-16, 28-32                     entry H          line    13 file /home/ubuntu/pk/Applications/miniconda3/envs/psi4-1.4a2.dev923/share/psi4/basis/pcseg-1.gbs \n\n   => DSD-BLYP-D3BJ: Empirical Dispersion <=\n\n    Grimme's -D3 (BJ-damping) Dispersion Correction\n    Grimme S.; Ehrlich S.; Goerigk L. (2011), J. Comput. Chem., 32: 1456\n    Parametrisation from:    S. Kozuch, J.M.L. Martin, J. Comp. Chem., 34, 2327-2344, 2013\n\n        s6 =       0.570000\n        s8 =       0.000000\n        a1 =       0.000000\n        a2 =       5.400000\n\n\n         ---------------------------------------------------------\n                                   SCF\n               by Justin Turney, Rob Parrish, Andy Simmonett\n                          and Daniel G. A. Smith\n                              RKS Reference\n                       16 Threads,  95367 MiB Core\n         ---------------------------------------------------------\n\n  ==> Geometry <==\n\n    Molecular point group: c1\n    Full point group: C1\n\n    Geometry (in Bohr), charge = 0, multiplicity = 1:\n\n       Center              X                  Y                   Z               Mass       \n    ------------   -----------------  -----------------  -----------------  -----------------\n         N            0.039076486172     4.630398892670    -6.480050255282    14.003074004430\n         C            1.872110827866     3.468217325513    -7.753725663840    12.000000000000\n         N            2.197143721445     1.094721311938    -7.086652341554    14.003074004430\n         C            0.417021711264     0.686540468839    -5.213933751225    12.000000000000\n         C           -0.138557769621    -1.494203479939    -3.815536418386    12.000000000000\n         O            0.866776529123    -3.623924823330    -3.940258342666    15.994914619570\n         N           -2.120880475226    -1.027441126951    -2.078878109090    14.003074004430\n         C           -3.283062042383     1.295032281237    -1.714160966877    12.000000000000\n         N           -4.870431987767     1.461328180277     0.133991183821    14.003074004430\n         N           -2.821968867771     3.298141974222    -3.076653503332    14.003074004430\n         C           -0.917124933310     2.854056334739    -4.783076194621    12.000000000000\n         H           -0.665791358624     6.385954463220    -6.750281091222     1.007825032230\n         H           -2.606540089469    -2.520324766063    -0.920475994185     1.007825032230\n         H            2.943585541001     4.403631757615    -9.222042863321     1.007825032230\n         H           -5.257825843486     0.019467146553     1.358533713117     1.007825032230\n         H           -5.798287515367     3.114838540053     0.338081605370     1.007825032230\n         N            0.307417595987     3.162081693189     3.441011903372    14.003074004430\n         C            1.996832752146     3.243339916584     1.528609064409    12.000000000000\n         N            2.883114304986     1.053147337178     1.020272736660    14.003074004430\n         C            1.800301235099    -0.566347952339     2.738033784702    12.000000000000\n         C            2.148010842183    -3.283774120748     3.129207092671    12.000000000000\n         O            3.518062283140    -4.786106390487     1.802619352600    15.994914619570\n         N            0.751503235470    -4.162496769085     5.198457200048    14.003074004430\n         C           -0.833976983789    -2.645046690343     6.617641520266    12.000000000000\n         N           -1.986709920319    -3.816676888127     8.545162168233    14.003074004430\n         N           -1.179796864748    -0.188402727248     6.167886702408    14.003074004430\n         C            0.207262111338     0.694099373341     4.240366054441    12.000000000000\n         H           -0.705475607258     4.603942726913     4.181784544551     1.007825032230\n         H            0.798746388606    -6.095686595429     5.531048998128     1.007825032230\n         H            2.420131404249     4.970549595252     0.519495313414     1.007825032230\n         H           -1.871436626666    -5.729079727090     8.847518348307     1.007825032230\n         H           -3.266054507254    -2.792445328129     9.520260848970     1.007825032230\n\n  Running in c1 symmetry.\n\n  Rotational constants: A =      0.01937  B =      0.00689  C =      0.00628 [cm^-1]\n  Rotational constants: A =    580.66746  B =    206.51883  C =    188.19690 [MHz]\n  Nuclear repulsion = 1842.116788708644663\n\n  Charge       = 0\n  Multiplicity = 1\n  Electrons    = 156\n  Nalpha       = 78\n  Nbeta        = 78\n\n  ==> Algorithm <==\n\n  SCF Algorithm Type is DF.\n  DIIS enabled.\n  MOM disabled.\n  Fractional occupation disabled.\n  Guess Type is SAD.\n  Energy threshold   = 1.00e-06\n  Density threshold  = 1.00e-06\n  Integral threshold = 0.00e+00\n\n  ==> Primary Basis <==\n\n  Basis Set: PCSEG-1\n    Blend: PCSEG-1\n    Number of shells: 162\n    Number of basis function: 358\n    Number of Cartesian functions: 380\n    Spherical Harmonics?: true\n    Max angular momentum: 2\n\n  ==> DFT Potential <==\n\n   => Composite Functional: DSD-BLYP-D3BJ <= \n\n    DSD-BLYP-D3BJ Dispersion-corrected SCS Double Hybrid XC Functional\n\n    S. Kozuch, J.M.L. Martin, J. Comp. Chem., 34, 2327-2344, 2013\n\n\n    Deriv               =              1\n    GGA                 =           TRUE\n    Meta                =          FALSE\n\n    Exchange Hybrid     =           TRUE\n    MP2 Hybrid          =           TRUE\n\n   => Exchange Functionals <=\n\n    0.2900     XC_GGA_X_B88\n\n   => Exact (HF) Exchange <=\n\n    0.7100               HF \n\n   => Correlation Functionals <=\n\n    0.5400     XC_GGA_C_LYP\n\n   => MP2 Correlation <=\n\n    MP2 SCS Hybrid      =           TRUE\n    MP2 OS Alpha        =       0.470000\n    MP2 SS Alpha        =       0.400000\n\n   => LibXC Density Thresholds  <==\n\n    XC_GGA_C_LYP:  1.00E-32 \n    XC_GGA_X_B88:  1.00E-25 \n\n   => Molecular Quadrature <=\n\n    Radial Scheme          =       TREUTLER\n    Pruning Scheme         =           NONE\n    Nuclear Scheme         =       TREUTLER\n\n    BS radius alpha        =              1\n    Pruning alpha          =              1\n    Radial Points          =             75\n    Spherical Points       =            302\n    Total Points           =         655231\n    Total Blocks           =           4747\n    Max Points             =            256\n    Max Functions          =            310\n    Weights Tolerance      =       1.00E-15\n\n   => Loading Basis Set <=\n\n    Name: (PCSEG-1 AUX)\n    Role: JKFIT\n    Keyword: DF_BASIS_SCF\n    atoms 1, 3, 7, 9-10, 17, 19, 23, 25-26 entry N          line   258 file /home/ubuntu/pk/Applications/miniconda3/envs/psi4-1.4a2.dev923/share/psi4/basis/def2-universal-jkfit.gbs \n    atoms 2, 4-5, 8, 11, 18, 20-21, 24, 27 entry C          line   198 file /home/ubuntu/pk/Applications/miniconda3/envs/psi4-1.4a2.dev923/share/psi4/basis/def2-universal-jkfit.gbs \n    atoms 6, 22                            entry O          line   318 file /home/ubuntu/pk/Applications/miniconda3/envs/psi4-1.4a2.dev923/share/psi4/basis/def2-universal-jkfit.gbs \n    atoms 12-16, 28-32                     entry H          line    18 file /home/ubuntu/pk/Applications/miniconda3/envs/psi4-1.4a2.dev923/share/psi4/basis/def2-universal-jkfit.gbs \n\n  ==> Integral Setup <==\n\n  DFHelper Memory: AOs need 1.415 GiB; user supplied 66.670 GiB. Using in-core AOs.\n\n  ==> MemDFJK: Density-Fitted J/K Matrices <==\n\n    J tasked:                   Yes\n    K tasked:                   Yes\n    wK tasked:                   No\n    OpenMP threads:              16\n    Memory [MiB]:             68270\n    Algorithm:                 Core\n    Schwarz Cutoff:           1E-12\n    Mask sparsity (%):      23.8148\n    Fitting Condition:        1E-10\n\n   => Auxiliary Basis Set <=\n\n  Basis Set: (PCSEG-1 AUX)\n    Blend: DEF2-UNIVERSAL-JKFIT\n    Number of shells: 610\n    Number of basis function: 1854\n    Number of Cartesian functions: 2206\n    Spherical Harmonics?: true\n    Max angular momentum: 4\n\n  Cached 100.0% of DFT collocation blocks in 3.179 [GiB].\n\n  Minimum eigenvalue in the overlap matrix is 8.5556790696E-04.\n  Reciprocal condition number of the overlap matrix is 1.3646205819E-04.\n    Using symmetric orthogonalization.\n\n  ==> Pre-Iterations <==\n\n  SCF Guess: Superposition of Atomic Densities via on-the-fly atomic UHF (no occupation information).\n\n   -------------------------\n    Irrep   Nso     Nmo    \n   -------------------------\n     A        358     358 \n   -------------------------\n    Total     358     358\n   -------------------------\n\n  ==> Iterations <==\n\n                           Total Energy        Delta E     RMS |[F,P]|\n\n   @DF-RKS iter SAD: -1081.83010295121312   -1.08183e+03   0.00000e+00 \n   @DF-RKS iter   1: -1080.91834349907754    9.11759e-01   3.33988e-03 DIIS\n   @DF-RKS iter   2: -1081.13853091258420   -2.20187e-01   3.00327e-03 DIIS\n   @DF-RKS iter   3: -1081.58315432041354   -4.44623e-01   6.32092e-04 DIIS\n   @DF-RKS iter   4: -1081.60392895692075   -2.07746e-02   1.81830e-04 DIIS\n   @DF-RKS iter   5: -1081.60598707081749   -2.05811e-03   4.87265e-05 DIIS\n   @DF-RKS iter   6: -1081.60615179856086   -1.64728e-04   1.61998e-05 DIIS\n   @DF-RKS iter   7: -1081.60618078544553   -2.89869e-05   8.02103e-06 DIIS\n   @DF-RKS iter   8: -1081.60618714490283   -6.35946e-06   2.82192e-06 DIIS\n   @DF-RKS iter   9: -1081.60618807903847   -9.34136e-07   1.23580e-06 DIIS\n   @DF-RKS iter  10: -1081.60618820166246   -1.22624e-07   4.15371e-07 DIIS\n  Energy and wave function converged.\n\n\n  ==> Post-Iterations <==\n\n    Orbital Energies [Eh]\n    ---------------------\n\n    Doubly Occupied:                                                      \n\n       1A    -19.995634     2A    -19.976020     3A    -15.197651  \n       4A    -15.181108     5A    -15.176607     6A    -15.168341  \n       7A    -15.166899     8A    -15.161358     9A    -15.124748  \n      10A    -15.101084    11A    -15.095599    12A    -15.084554  \n      13A    -11.029531    14A    -10.999055    15A    -10.987643  \n      16A    -10.960017    17A    -10.936046    18A    -10.924179  \n      19A    -10.921397    20A    -10.908849    21A    -10.868397  \n      22A    -10.848498    23A     -1.286693    24A     -1.269857  \n      25A     -1.257011    26A     -1.237487    27A     -1.218371  \n      28A     -1.215911    29A     -1.139668    30A     -1.126521  \n      31A     -1.124985    32A     -1.102137    33A     -1.083251  \n      34A     -1.065150    35A     -0.956154    36A     -0.938437  \n      37A     -0.843138    38A     -0.832650    39A     -0.828744  \n      40A     -0.809636    41A     -0.774163    42A     -0.761924  \n      43A     -0.752655    44A     -0.739153    45A     -0.697157  \n      46A     -0.694919    47A     -0.682721    48A     -0.670854  \n      49A     -0.662586    50A     -0.644366    51A     -0.625041  \n      52A     -0.617516    53A     -0.610534    54A     -0.595098  \n      55A     -0.590255    56A     -0.569804    57A     -0.559660  \n      58A     -0.556483    59A     -0.540219    60A     -0.530951  \n      61A     -0.528244    62A     -0.520937    63A     -0.496703  \n      64A     -0.483192    65A     -0.441709    66A     -0.426612  \n      67A     -0.423619    68A     -0.399093    69A     -0.388866  \n      70A     -0.378425    71A     -0.376673    72A     -0.368043  \n      73A     -0.365114    74A     -0.363082    75A     -0.353155  \n      76A     -0.352528    77A     -0.280115    78A     -0.259455  \n\n    Virtual:                                                              \n\n      79A      0.060387    80A      0.068910    81A      0.075476  \n      82A      0.080884    83A      0.090837    84A      0.099524  \n      85A      0.108156    86A      0.110180    87A      0.113420  \n      88A      0.133834    89A      0.139388    90A      0.151382  \n      91A      0.153883    92A      0.157619    93A      0.164528  \n      94A      0.166158    95A      0.262323    96A      0.272668  \n      97A      0.278090    98A      0.289895    99A      0.297707  \n     100A      0.301820   101A      0.304815   102A      0.316140  \n     103A      0.320917   104A      0.328617   105A      0.357946  \n     106A      0.361291   107A      0.375078   108A      0.386333  \n     109A      0.393749   110A      0.397741   111A      0.419143  \n     112A      0.420888   113A      0.431224   114A      0.442166  \n     115A      0.469169   116A      0.475131   117A      0.479323  \n     118A      0.486225   119A      0.500225   120A      0.506047  \n     121A      0.515971   122A      0.518967   123A      0.532428  \n     124A      0.534781   125A      0.554987   126A      0.573467  \n     127A      0.582286   128A      0.589847   129A      0.596777  \n     130A      0.599643   131A      0.606194   132A      0.608020  \n     133A      0.619494   134A      0.622195   135A      0.640131  \n     136A      0.643771   137A      0.656798   138A      0.672410  \n     139A      0.679357   140A      0.691937   141A      0.700743  \n     142A      0.705642   143A      0.711456   144A      0.726078  \n     145A      0.733355   146A      0.739456   147A      0.758941  \n     148A      0.776539   149A      0.781933   150A      0.786960  \n     151A      0.791769   152A      0.797970   153A      0.806285  \n     154A      0.809299   155A      0.822212   156A      0.827364  \n     157A      0.839119   158A      0.845920   159A      0.854234  \n     160A      0.860663   161A      0.866321   162A      0.867842  \n     163A      0.880471   164A      0.888299   165A      0.899729  \n     166A      0.905261   167A      0.906124   168A      0.922718  \n     169A      0.926478   170A      0.929374   171A      0.957447  \n     172A      0.964320   173A      0.974519   174A      0.990232  \n     175A      0.995159   176A      1.006959   177A      1.024836  \n     178A      1.032413   179A      1.045221   180A      1.058086  \n     181A      1.063743   182A      1.081689   183A      1.089971  \n     184A      1.096055   185A      1.110876   186A      1.122458  \n     187A      1.152771   188A      1.165762   189A      1.167850  \n     190A      1.180573   191A      1.209552   192A      1.238609  \n     193A      1.252851   194A      1.255367   195A      1.265726  \n     196A      1.307708   197A      1.323138   198A      1.335459  \n     199A      1.340389   200A      1.350625   201A      1.362777  \n     202A      1.369956   203A      1.390748   204A      1.394750  \n     205A      1.424104   206A      1.439059   207A      1.466571  \n     208A      1.468900   209A      1.484401   210A      1.491752  \n     211A      1.508492   212A      1.530001   213A      1.537842  \n     214A      1.552327   215A      1.561953   216A      1.564716  \n     217A      1.566541   218A      1.574143   219A      1.578513  \n     220A      1.604231   221A      1.609990   222A      1.616855  \n     223A      1.623156   224A      1.631637   225A      1.649106  \n     226A      1.673414   227A      1.689905   228A      1.695291  \n     229A      1.702494   230A      1.727504   231A      1.733302  \n     232A      1.770603   233A      1.852404   234A      1.879523  \n     235A      1.898806   236A      1.922091   237A      1.977058  \n     238A      1.979887   239A      1.997327   240A      2.009798  \n     241A      2.023833   242A      2.032937   243A      2.048462  \n     244A      2.053018   245A      2.057678   246A      2.065774  \n     247A      2.070806   248A      2.077876   249A      2.083791  \n     250A      2.088127   251A      2.111297   252A      2.113483  \n     253A      2.120399   254A      2.140156   255A      2.144083  \n     256A      2.156860   257A      2.169803   258A      2.179337  \n     259A      2.185399   260A      2.203202   261A      2.211748  \n     262A      2.216469   263A      2.223754   264A      2.240315  \n     265A      2.245742   266A      2.265869   267A      2.268826  \n     268A      2.273657   269A      2.298472   270A      2.311431  \n     271A      2.334252   272A      2.348827   273A      2.375679  \n     274A      2.378708   275A      2.384778   276A      2.391083  \n     277A      2.408338   278A      2.412028   279A      2.427399  \n     280A      2.438588   281A      2.461168   282A      2.488043  \n     283A      2.503100   284A      2.512350   285A      2.524081  \n     286A      2.528934   287A      2.544201   288A      2.551485  \n     289A      2.569905   290A      2.578693   291A      2.585741  \n     292A      2.589295   293A      2.604160   294A      2.617552  \n     295A      2.622747   296A      2.631558   297A      2.636836  \n     298A      2.639949   299A      2.649087   300A      2.667746  \n     301A      2.674739   302A      2.683933   303A      2.692118  \n     304A      2.692580   305A      2.697544   306A      2.708234  \n     307A      2.722332   308A      2.753290   309A      2.795819  \n     310A      2.818851   311A      2.823415   312A      2.830542  \n     313A      2.848142   314A      2.859161   315A      2.875507  \n     316A      2.877432   317A      2.882892   318A      2.892873  \n     319A      2.914001   320A      2.940349   321A      2.946231  \n     322A      2.950432   323A      2.957149   324A      2.980495  \n     325A      3.015100   326A      3.019957   327A      3.025429  \n     328A      3.045164   329A      3.068429   330A      3.079184  \n     331A      3.080736   332A      3.142268   333A      3.152237  \n     334A      3.173508   335A      3.190297   336A      3.202340  \n     337A      3.210492   338A      3.220344   339A      3.303603  \n     340A      3.324242   341A      3.333524   342A      3.348296  \n     343A      3.389805   344A      3.410936   345A      3.415521  \n     346A      3.466573   347A      3.485973   348A      3.509038  \n     349A      3.532263   350A      3.567683   351A      3.605682  \n     352A      3.631309   353A      3.824495   354A      3.873366  \n     355A      3.884631   356A      3.931968   357A      3.974740  \n     358A      3.976720  \n\n    Final Occupation by Irrep:\n              A \n    DOCC [    78 ]\n\n  @DF-RKS Final Energy: -1081.60618820166246\n\n   => Energetics <=\n\n    Nuclear Repulsion Energy =           1842.1167887086446626\n    One-Electron Energy =               -5135.8175982418097192\n    Two-Electron Energy =                2255.3170445889877556\n    DFT Exchange-Correlation Energy =     -43.1836548874851758\n    Empirical Dispersion Energy =          -0.0387683700000000\n    VV10 Nonlocal Energy =                  0.0000000000000000\n    Total Energy =                      -1081.6061882016622349\n\nComputation Completed\n\n\nProperties will be evaluated at   0.000000,   0.000000,   0.000000 [a0]\n\nProperties computed using the SCF density matrix\n\n  Nuclear Dipole Moment: [e a0]\n     X:    -6.9281      Y:     3.1257      Z:     6.6352\n\n  Electronic Dipole Moment: [e a0]\n     X:     3.1767      Y:    -1.1588      Z:    -3.0613\n\n  Dipole Moment: [e a0]\n     X:    -3.7513      Y:     1.9669      Z:     3.5739     Total:     5.5420\n\n  Dipole Moment: [D]\n     X:    -9.5349      Y:     4.9995      Z:     9.0840     Total:    14.0865\n\n\n*** tstop() called on bignimbus at Thu May 13 03:47:10 2021\nModule time:\n\tuser time   =     341.61 seconds =       5.69 minutes\n\tsystem time =      12.26 seconds =       0.20 minutes\n\ttotal time  =         26 seconds =       0.43 minutes\nTotal time:\n\tuser time   =     341.61 seconds =       5.69 minutes\n\tsystem time =      12.26 seconds =       0.20 minutes\n\ttotal time  =         26 seconds =       0.43 minutes\n\n*** tstart() called on bignimbus\n*** at Thu May 13 03:47:10 2021\n\n   => Loading Basis Set <=\n\n    Name: (PCSEG-1 AUX)\n    Role: RIFIT\n    Keyword: DF_BASIS_MP2\n    atoms 1, 3, 7, 9-10, 17, 19, 23, 25-26 entry N          line   193 file /home/ubuntu/pk/Applications/miniconda3/envs/psi4-1.4a2.dev923/share/psi4/basis/def2-svp-ri.gbs \n    atoms 2, 4-5, 8, 11, 18, 20-21, 24, 27 entry C          line   153 file /home/ubuntu/pk/Applications/miniconda3/envs/psi4-1.4a2.dev923/share/psi4/basis/def2-svp-ri.gbs \n    atoms 6, 22                            entry O          line   233 file /home/ubuntu/pk/Applications/miniconda3/envs/psi4-1.4a2.dev923/share/psi4/basis/def2-svp-ri.gbs \n    atoms 12-16, 28-32                     entry H          line    22 file /home/ubuntu/pk/Applications/miniconda3/envs/psi4-1.4a2.dev923/share/psi4/basis/def2-svp-ri.gbs \n\n\t --------------------------------------------------------\n\t                          DF-MP2                         \n\t      2nd-Order Density-Fitted Moller-Plesset Theory     \n\t              RMP2 Wavefunction,  16 Threads             \n\t                                                         \n\t        Rob Parrish, Justin Turney, Andy Simmonett,      \n\t           Ed Hohenstein, and C. David Sherrill          \n\t --------------------------------------------------------\n\n   => Auxiliary Basis Set <=\n\n  Basis Set: (PCSEG-1 AUX)\n    Blend: DEF2-SVP-RI\n    Number of shells: 412\n    Number of basis function: 1196\n    Number of Cartesian functions: 1360\n    Spherical Harmonics?: true\n    Max angular momentum: 3\n\n\t --------------------------------------------------------\n\t                 NBF =   358, NAUX =  1196\n\t --------------------------------------------------------\n\t   CLASS    FOCC     OCC    AOCC    AVIR     VIR    FVIR\n\t   PAIRS       0      78      78     280     280       0\n\t --------------------------------------------------------\n\n\t-----------------------------------------------------------\n\t ==================> DF-MP2 Energies <==================== \n\t-----------------------------------------------------------\n\t Reference Energy          =   -1081.6061882016624622 [Eh]\n\t Singles Energy            =      -0.0000000000000000 [Eh]\n\t Same-Spin Energy          =      -1.0645676834040365 [Eh]\n\t Opposite-Spin Energy      =      -2.7228972175995843 [Eh]\n\t Correlation Energy        =      -3.7874649010036210 [Eh]\n\t Total Energy              =   -1085.3936531026661214 [Eh]\n\t-----------------------------------------------------------\n\t ================> DF-SCS-MP2 Energies <================== \n\t-----------------------------------------------------------\n\t SCS Same-Spin Scale       =       0.4000000000000000 [-]\n\t SCS Opposite-Spin Scale   =       0.4700000000000000 [-]\n\t SCS Same-Spin Energy      =      -0.4258270733616146 [Eh]\n\t SCS Opposite-Spin Energy  =      -1.2797616922718045 [Eh]\n\t SCS Correlation Energy    =      -3.6223325555875134 [Eh]\n\t SCS Total Energy          =   -1085.2285207572499530 [Eh]\n\t-----------------------------------------------------------\n\n\n\n    DSD-BLYP-D3BJ Energy Summary\n    ----------------------------\n    DFT Reference Energy                  = -1081.6061882016624622\n    Scaled MP2 Correlation                =    -1.7055887656334190\n    @Final double-hybrid DFT total energy = -1083.3117769672958275\n\n\n*** tstop() called on bignimbus at Thu May 13 03:47:17 2021\nModule time:\n\tuser time   =      83.10 seconds =       1.39 minutes\n\tsystem time =       1.95 seconds =       0.03 minutes\n\ttotal time  =          7 seconds =       0.12 minutes\nTotal time:\n\tuser time   =     424.74 seconds =       7.08 minutes\n\tsystem time =      14.21 seconds =       0.24 minutes\n\ttotal time  =         33 seconds =       0.55 minutes\n\n    Psi4 stopped on: Thursday, 13 May 2021 03:47AM\n    Psi4 wall time for execution: 0:00:33.56\n\n*** Psi4 exiting successfully. Buy a developer a beer!\n",
 "stderr": null,
 "success": true,
 "error": null,
 "tag": "dsd-blyp-d3bj pcseg-1 ggg_b"
}