{
 "id": null,
 "schema_name": "qcschema_output",
 "schema_version": 1,
 "molecule": {
  "validated": true,
  "symbols": [
   "N",
   "C",
   "N",
   "C",
   "C",
   "O",
   "N",
   "C",
   "N",
   "N",
   "C",
   "H",
   "H",
   "H",
   "H",
   "H"
  ],
  "geometry": [
   1.9795091944628955,
   2.1064834459358144,
   -3.2710258001379717,
   3.442157215567254,
   0.04479224306132246,
   -3.8587306251553546,
   3.037755824719278,
   -1.9205229274148177,
   -2.447105209438357,
   1.1329118902577873,
   -1.157073572729854,
   -0.8011537541645827,
   -0.012262141769655663,
   -2.415631172284768,
   1.2151840216989083,
   0.2787556815508495,
   -4.558580598553946,
   1.9767436502584184,
   -1.7942738780763892,
   -0.8301509530256518,
   2.4756313473792826,
   -2.3895376075956043,
   1.6208238316931525,
   1.8860367962364304,
   -4.060055502500323,
   2.879381431248068,
   3.327897829960767,
   -1.3464087863428829,
   2.818910195233415,
   -0.06605029136148675,
   0.4469413067165973,
   1.3279162822471884,
   -1.2830339161563362,
   1.9190379584482444,
   3.80723695884786,
   -4.140299817848581,
   -2.720239679550724,
   -1.6994249707362516,
   3.9722944387418746,
   4.817877834900553,
   0.1317196448323844,
   -5.370511525521616,
   -4.434221275340973,
   4.678400702683921,
   2.8233409544635233,
   -4.866968558070816,
   2.102703993684897,
   4.9095985969689675
  ],
  "name": "C5H5N5O",
  "molecular_charge": 0.0,
  "molecular_multiplicity": 1,
  "masses": [
   14.00307400443,
   12.0,
   14.00307400443,
   12.0,
   12.0,
   15.99491461957,
   14.00307400443,
   12.0,
   14.00307400443,
   14.00307400443,
   12.0,
   1.00782503223,
   1.00782503223,
   1.00782503223,
   1.00782503223,
   1.00782503223
  ],
  "real": [
   true,
   true,
   true,
   true,
   true,
   true,
   true,
   true,
   true,
   true,
   true,
   true,
   true,
   true,
   true,
   true
  ],
  "atom_labels": [
   "",
   "",
   "",
   "",
   "",
   "",
   "",
   "",
   "",
   "",
   "",
   "",
   "",
   "",
   "",
   ""
  ],
  "atomic_numbers": [
   7,
   6,
   7,
   6,
   6,
   8,
   7,
   6,
   7,
   7,
   6,
   1,
   1,
   1,
   1,
   1
  ],
  "mass_numbers": [
   14,
   12,
   14,
   12,
   12,
   16,
   14,
   12,
   14,
   14,
   12,
   1,
   1,
   1,
   1,
   1
  ],
  "fragments": [
   [
    0,
    1,
    2,
    3,
    4,
    5,
    6,
    7,
    8,
    9,
    10,
    11,
    12,
    13,
    14,
    15
   ]
  ],
  "fragment_charges": [
   0.0
  ],
  "fragment_multiplicities": [
   1
  ],
  "fix_com": false,
  "fix_orientation": false,
  "provenance": {
   "creator": "QCElemental",
   "version": "v0.19.0",
   "routine": "qcelemental.molparse.from_string"
  }
 },
 "driver": "energy",
 "model": {
  "method": "b97m-v",
  "basis": "pcseg-2"
 },
 "keywords": {},
 "protocols": {},
 "extras": {
  "qcvars": {
   "CURRENT DIPOLE X": -3.2678288414111365,
   "CURRENT DIPOLE Y": 6.156461074200378,
   "CURRENT DIPOLE Z": 0.9294872511347134,
   "CURRENT ENERGY": -542.6923790345878,
   "CURRENT REFERENCE ENERGY": -542.6923790345878,
   "DFT FUNCTIONAL TOTAL ENERGY": -542.6923790345878,
   "DFT TOTAL ENERGY": -542.6923790345878,
   "DFT VV10 ENERGY": 0.2978832005294607,
   "DFT XC ENERGY": -72.53630164840543,
   "NUCLEAR REPULSION ENERGY": 594.6969861901529,
   "ONE-ELECTRON ENERGY": -1916.57536942032,
   "PCM POLARIZATION ENERGY": 0.0,
   "PE ENERGY": 0.0,
   "SCF DIPOLE X": -3.2678288414111365,
   "SCF DIPOLE Y": 6.156461074200378,
   "SCF DIPOLE Z": 0.9294872511347134,
   "SCF ITERATION ENERGY": -542.6923790345878,
   "SCF ITERATIONS": 10.0,
   "SCF TOTAL ENERGY": -542.6923790345878,
   "TWO-ELECTRON ENERGY": 851.4244226434552,
   "XC GRID RADIAL POINTS": 75.0,
   "XC GRID SPHERICAL POINTS": 302.0,
   "XC GRID TOTAL POINTS": 336774.0,
   "CURRENT DIPOLE": [
    -1.2856627925947421,
    2.4221381600081955,
    0.36568842279359703
   ],
   "SCF DIPOLE": [
    -1.2856627925947421,
    2.4221381600081955,
    0.36568842279359703
   ]
  }
 },
 "provenance": {
  "creator": "Psi4",
  "version": "1.4a2.dev923",
  "routine": "psi4.schema_runner.run_qcschema",
  "qcengine_version": "v0.17.0",
  "memory": 256.0,
  "hostname": "bignimbus",
  "nthreads": 16,
  "wall_time": 44.413259983062744,
  "cpu": "AMD EPYC Processor (with IBPB)",
  "username": "ubuntu"
 },
 "properties": {
  "calcinfo_nbasis": 400,
  "calcinfo_nmo": 400,
  "calcinfo_nalpha": 39,
  "calcinfo_nbeta": 39,
  "calcinfo_natom": 16,
  "nuclear_repulsion_energy": 594.6969861901529,
  "return_energy": -542.6923790345878,
  "scf_one_electron_energy": -1916.57536942032,
  "scf_two_electron_energy": 851.4244226434552,
  "scf_vv10_energy": 0.2978832005294607,
  "scf_xc_energy": -72.53630164840543,
  "scf_dipole_moment": [
   -1.2856627925947421,
   2.4221381600081955,
   0.36568842279359703
  ],
  "scf_total_energy": -542.6923790345878,
  "scf_iterations": 10
 },
 "wavefunction": null,
 "return_result": -542.6923790345878,
 "stdout": "\n    -----------------------------------------------------------------------\n          Psi4: An Open-Source Ab Initio Electronic Structure Package\n                               Psi4 1.4a2.dev923 \n\n                         Git: Rev {master} 5de566e \n\n\n    D. G. A. Smith, L. A. Burns, A. C. Simmonett, R. M. Parrish,\n    M. C. Schieber, R. Galvelis, P. Kraus, H. Kruse, R. Di Remigio,\n    A. Alenaizan, A. M. James, S. Lehtola, J. P. Misiewicz, M. Scheurer,\n    R. A. Shaw, J. B. Schriber, Y. Xie, Z. L. Glick, D. A. Sirianni,\n    J. S. O'Brien, J. M. Waldrop, A. Kumar, E. G. Hohenstein,\n    B. P. Pritchard, B. R. Brooks, H. F. Schaefer III, A. Yu. Sokolov,\n    K. Patkowski, A. E. DePrince III, U. Bozkaya, R. A. King,\n    F. A. Evangelista, J. M. Turney, T. D. Crawford, C. D. Sherrill,\n    J. Chem. Phys. 152(18) 184108 (2020). https://doi.org/10.1063/5.0006002\n\n                            Additional Code Authors\n    E. T. Seidl, C. L. Janssen, E. F. Valeev, M. L. Leininger,\n    J. F. Gonthier, R. M. Richard, H. R. McAlexander, M. Saitow, X. Wang,\n    P. Verma, and M. H. Lechner\n\n             Previous Authors, Complete List of Code Contributors,\n                       and Citations for Specific Modules\n    https://github.com/psi4/psi4/blob/master/codemeta.json\n    https://github.com/psi4/psi4/graphs/contributors\n    http://psicode.org/psi4manual/master/introduction.html#citing-psifour\n\n    -----------------------------------------------------------------------\n\n\n    Psi4 started on: Sunday, 25 April 2021 10:51AM\n\n    Process ID: 4015137\n    Host:       bignimbus\n    PSIDATADIR: /home/ubuntu/pk/Applications/miniconda3/envs/psi4-1.4a2.dev923/share/psi4\n    Memory:     238.4 GiB\n    Threads:    16\n    \n  ==> Input QCSchema <==\n\n--------------------------------------------------------------------------\n{'driver': 'energy',\n 'extras': {},\n 'id': None,\n 'keywords': {},\n 'model': {'basis': 'pcseg-2', 'method': 'b97m-v'},\n 'molecule': {'atom_labels': ['', '', '', '', '', '', '', '', '', '', '', '', '', '', '', ''],\n              'atomic_numbers': [7, 6, 7, 6, 6, 8, 7, 6, 7, 7, 6, 1, 1, 1, 1, 1],\n              'fix_com': False,\n              'fix_orientation': False,\n              'fragment_charges': [0.0],\n              'fragment_multiplicities': [1],\n              'fragments': [[0, 1, 2, 3, 4, 5, 6, 7, 8, 9, 10, 11, 12, 13, 14, 15]],\n              'geometry': [1.9795091944628904, 2.10648344593581, -3.2710258001380055, 3.4421572155672493,\n                           0.044792243061317905, -3.8587306251553883, 3.037755824719273, -1.9205229274148223,\n                           -2.4471052094383907, 1.1329118902577822, -1.1570735727298587, -0.8011537541646163,\n                           -0.012262141769660673, -2.4156311722847725, 1.2151840216988745, 0.2787556815508445,\n                           -4.5585805985539505, 1.9767436502583846, -1.7942738780763943, -0.8301509530256563,\n                           2.475631347379249, -2.389537607595609, 1.6208238316931478, 1.8860367962363966,\n                           -4.060055502500329, 2.8793814312480634, 3.327897829960733, -1.346408786342888,\n                           2.8189101952334106, -0.06605029136152041, 0.4469413067165923, 1.3279162822471837,\n                           -1.28303391615637, 1.9190379584482393, 3.8072369588478554, -4.140299817848614,\n                           -2.720239679550729, -1.6994249707362563, 3.972294438741841, 4.817877834900548,\n                           0.13171964483237986, -5.37051152552165, -4.434221275340978, 4.678400702683916,\n                           2.8233409544634895, -4.8669685580708215, 2.1027039936848926, 4.909598596968934],\n              'mass_numbers': [14, 12, 14, 12, 12, 16, 14, 12, 14, 14, 12, 1, 1, 1, 1, 1],\n              'masses': [14.00307400443, 12.0, 14.00307400443, 12.0, 12.0, 15.99491461957, 14.00307400443, 12.0,\n                         14.00307400443, 14.00307400443, 12.0, 1.00782503223, 1.00782503223, 1.00782503223,\n                         1.00782503223, 1.00782503223],\n              'molecular_charge': 0.0,\n              'molecular_multiplicity': 1,\n              'name': 'C5H5N5O',\n              'provenance': {'creator': 'QCElemental',\n                             'routine': 'qcelemental.molparse.from_string',\n                             'version': 'v0.19.0'},\n              'real': [True, True, True, True, True, True, True, True, True, True, True, True, True, True, True, True],\n              'symbols': ['N', 'C', 'N', 'C', 'C', 'O', 'N', 'C', 'N', 'N', 'C', 'H', 'H', 'H', 'H', 'H'],\n              'validated': True},\n 'protocols': {},\n 'provenance': {'creator': 'QCElemental', 'routine': 'qcelemental.models.results', 'version': 'v0.17.0'},\n 'schema_name': 'qcschema_input',\n 'schema_version': 1}\n--------------------------------------------------------------------------\n\nScratch directory: /home/ubuntu/pk/scratch/tmpicdppdur_psi_scratch/\n\n*** tstart() called on bignimbus\n*** at Sun Apr 25 10:51:47 2021\n\n   => Loading Basis Set <=\n\n    Name: PCSEG-2\n    Role: ORBITAL\n    Keyword: BASIS\n    atoms 1, 3, 7, 9-10 entry N          line   161 file /home/ubuntu/pk/Applications/miniconda3/envs/psi4-1.4a2.dev923/share/psi4/basis/pcseg-2.gbs \n    atoms 2, 4-5, 8, 11 entry C          line   129 file /home/ubuntu/pk/Applications/miniconda3/envs/psi4-1.4a2.dev923/share/psi4/basis/pcseg-2.gbs \n    atoms 6             entry O          line   193 file /home/ubuntu/pk/Applications/miniconda3/envs/psi4-1.4a2.dev923/share/psi4/basis/pcseg-2.gbs \n    atoms 12-16         entry H          line    13 file /home/ubuntu/pk/Applications/miniconda3/envs/psi4-1.4a2.dev923/share/psi4/basis/pcseg-2.gbs \n\n\n         ---------------------------------------------------------\n                                   SCF\n               by Justin Turney, Rob Parrish, Andy Simmonett\n                          and Daniel G. A. Smith\n                              RKS Reference\n                       16 Threads, 244140 MiB Core\n         ---------------------------------------------------------\n\n  ==> Geometry <==\n\n    Molecular point group: c1\n    Full point group: C1\n\n    Geometry (in Bohr), charge = 0, multiplicity = 1:\n\n       Center              X                  Y                   Z               Mass       \n    ------------   -----------------  -----------------  -----------------  -----------------\n         N            1.979509194463     2.106483445936    -3.271025800138    14.003074004430\n         C            3.442157215567     0.044792243061    -3.858730625155    12.000000000000\n         N            3.037755824719    -1.920522927415    -2.447105209438    14.003074004430\n         C            1.132911890258    -1.157073572730    -0.801153754165    12.000000000000\n         C           -0.012262141770    -2.415631172285     1.215184021699    12.000000000000\n         O            0.278755681551    -4.558580598554     1.976743650258    15.994914619570\n         N           -1.794273878076    -0.830150953026     2.475631347379    14.003074004430\n         C           -2.389537607596     1.620823831693     1.886036796236    12.000000000000\n         N           -4.060055502500     2.879381431248     3.327897829961    14.003074004430\n         N           -1.346408786343     2.818910195233    -0.066050291361    14.003074004430\n         C            0.446941306717     1.327916282247    -1.283033916156    12.000000000000\n         H            1.919037958448     3.807236958848    -4.140299817849     1.007825032230\n         H           -2.720239679551    -1.699424970736     3.972294438742     1.007825032230\n         H            4.817877834901     0.131719644832    -5.370511525522     1.007825032230\n         H           -4.434221275341     4.678400702684     2.823340954464     1.007825032230\n         H           -4.866968558071     2.102703993685     4.909598596969     1.007825032230\n\n  Running in c1 symmetry.\n\n  Rotational constants: A =      0.06486  B =      0.03693  C =      0.02354 [cm^-1]\n  Rotational constants: A =   1944.44089  B =   1107.15421  C =    705.76789 [MHz]\n  Nuclear repulsion =  594.696986190152870\n\n  Charge       = 0\n  Multiplicity = 1\n  Electrons    = 78\n  Nalpha       = 39\n  Nbeta        = 39\n\n  ==> Algorithm <==\n\n  SCF Algorithm Type is DF.\n  DIIS enabled.\n  MOM disabled.\n  Fractional occupation disabled.\n  Guess Type is SAD.\n  Energy threshold   = 1.00e-06\n  Density threshold  = 1.00e-06\n  Integral threshold = 0.00e+00\n\n  ==> Primary Basis <==\n\n  Basis Set: PCSEG-2\n    Blend: PCSEG-2\n    Number of shells: 140\n    Number of basis function: 400\n    Number of Cartesian functions: 460\n    Spherical Harmonics?: true\n    Max angular momentum: 3\n\n  ==> DFT Potential <==\n\n   => Composite Functional: B97M-V <= \n\n    B97M-V GGA Exchange-Correlation Functional\n\n    N. Mardirossian and M. Head-Gordon, J. Chem. Phys. 142, 074111 (2015)\n\n    Deriv               =              1\n    GGA                 =           TRUE\n    Meta                =           TRUE\n\n    Exchange Hybrid     =          FALSE\n    MP2 Hybrid          =          FALSE\n\n   => Exchange-Correlation Functionals <=\n\n    1.0000   B97M-V exchange-correlation functional\n\n   => LibXC Density Thresholds  <==\n\n    XC_MGGA_XC_B97M_V:  1.00E-23 \n\n   => VV10 Non-Local Parameters <=\n\n    VV10 B              =     6.0000E+00\n    VV10 C              =     1.0000E-02\n\n   => Molecular Quadrature <=\n\n    Radial Scheme          =       TREUTLER\n    Pruning Scheme         =           NONE\n    Nuclear Scheme         =       TREUTLER\n\n    BS radius alpha        =              1\n    Pruning alpha          =              1\n    Radial Points          =             75\n    Spherical Points       =            302\n    Total Points           =         336774\n    Total Blocks           =           2517\n    Max Points             =            256\n    Max Functions          =            357\n    Weights Tolerance      =       1.00E-15\n\n   => Loading Basis Set <=\n\n    Name: (PCSEG-2 AUX)\n    Role: JKFIT\n    Keyword: DF_BASIS_SCF\n    atoms 1, 3, 7, 9-10 entry N          line   258 file /home/ubuntu/pk/Applications/miniconda3/envs/psi4-1.4a2.dev923/share/psi4/basis/def2-universal-jkfit.gbs \n    atoms 2, 4-5, 8, 11 entry C          line   198 file /home/ubuntu/pk/Applications/miniconda3/envs/psi4-1.4a2.dev923/share/psi4/basis/def2-universal-jkfit.gbs \n    atoms 6             entry O          line   318 file /home/ubuntu/pk/Applications/miniconda3/envs/psi4-1.4a2.dev923/share/psi4/basis/def2-universal-jkfit.gbs \n    atoms 12-16         entry H          line    18 file /home/ubuntu/pk/Applications/miniconda3/envs/psi4-1.4a2.dev923/share/psi4/basis/def2-universal-jkfit.gbs \n\n  ==> Integral Setup <==\n\n  DFHelper Memory: AOs need 1.018 GiB; user supplied 172.988 GiB. Using in-core AOs.\n\n  ==> MemDFJK: Density-Fitted J/K Matrices <==\n\n    J tasked:                   Yes\n    K tasked:                    No\n    wK tasked:                   No\n    OpenMP threads:              16\n    Memory [MiB]:            177139\n    Algorithm:                 Core\n    Schwarz Cutoff:           1E-12\n    Mask sparsity (%):      13.1212\n    Fitting Condition:        1E-10\n\n   => Auxiliary Basis Set <=\n\n  Basis Set: (PCSEG-2 AUX)\n    Blend: DEF2-UNIVERSAL-JKFIT\n    Number of shells: 305\n    Number of basis function: 927\n    Number of Cartesian functions: 1103\n    Spherical Harmonics?: true\n    Max angular momentum: 4\n\n  Cached 100.0% of DFT collocation blocks in 5.826 [GiB].\n\n  Minimum eigenvalue in the overlap matrix is 7.1434843219E-05.\n  Reciprocal condition number of the overlap matrix is 6.9325794144E-06.\n    Using symmetric orthogonalization.\n\n  ==> Pre-Iterations <==\n\n  SCF Guess: Superposition of Atomic Densities via on-the-fly atomic UHF (no occupation information).\n\n   -------------------------\n    Irrep   Nso     Nmo    \n   -------------------------\n     A        400     400 \n   -------------------------\n    Total     400     400\n   -------------------------\n\n  ==> Iterations <==\n\n                           Total Energy        Delta E     RMS |[F,P]|\n\n   @DF-RKS iter SAD:  -542.45042867917550   -5.42450e+02   0.00000e+00 \n   @DF-RKS iter   1:  -541.99244613366432    4.57983e-01   3.10164e-03 DIIS\n   @DF-RKS iter   2:  -540.77991094841684    1.21254e+00   4.79575e-03 DIIS\n   @DF-RKS iter   3:  -542.51227812514833   -1.73237e+00   1.48131e-03 DIIS\n   @DF-RKS iter   4:  -542.67009005832801   -1.57812e-01   5.39480e-04 DIIS\n   @DF-RKS iter   5:  -542.68634671824793   -1.62567e-02   2.69465e-04 DIIS\n   @DF-RKS iter   6:  -542.69194921444807   -5.60250e-03   7.45012e-05 DIIS\n   @DF-RKS iter   7:  -542.69233723893501   -3.88024e-04   2.47658e-05 DIIS\n   @DF-RKS iter   8:  -542.69237394213167   -3.67032e-05   8.52798e-06 DIIS\n   @DF-RKS iter   9:  -542.69237855584890   -4.61372e-06   2.64456e-06 DIIS\n   @DF-RKS iter  10:  -542.69237903458782   -4.78739e-07   7.58981e-07 DIIS\n  Energy and wave function converged.\n\n\n  ==> Post-Iterations <==\n\n    Orbital Energies [Eh]\n    ---------------------\n\n    Doubly Occupied:                                                      \n\n       1A    -19.102233     2A    -14.393851     3A    -14.389633  \n       4A    -14.381957     5A    -14.330691     6A    -14.319000  \n       7A    -10.315516     8A    -10.276388     9A    -10.256085  \n      10A    -10.238874    11A    -10.190834    12A     -1.035989  \n      13A     -1.008242    14A     -0.993419    15A     -0.907635  \n      16A     -0.886190    17A     -0.862877    18A     -0.747129  \n      19A     -0.651060    20A     -0.638444    21A     -0.599789  \n      22A     -0.575568    23A     -0.526815    24A     -0.521782  \n      25A     -0.499810    26A     -0.465523    27A     -0.448334  \n      28A     -0.432437    29A     -0.405749    30A     -0.402800  \n      31A     -0.387531    32A     -0.365881    33A     -0.296725  \n      34A     -0.290408    35A     -0.268581    36A     -0.264013  \n      37A     -0.246825    38A     -0.231650    39A     -0.194259  \n\n    Virtual:                                                              \n\n      40A     -0.031686    41A     -0.027262    42A     -0.022923  \n      43A      0.002571    44A      0.014298    45A      0.018598  \n      46A      0.044947    47A      0.047186    48A      0.068730  \n      49A      0.108633    50A      0.116678    51A      0.125843  \n      52A      0.126893    53A      0.141047    54A      0.147092  \n      55A      0.162976    56A      0.169915    57A      0.174594  \n      58A      0.200182    59A      0.203906    60A      0.214801  \n      61A      0.218465    62A      0.228928    63A      0.237553  \n      64A      0.247378    65A      0.249406    66A      0.255206  \n      67A      0.261634    68A      0.272645    69A      0.281353  \n      70A      0.285846    71A      0.304215    72A      0.319599  \n      73A      0.324398    74A      0.327523    75A      0.335276  \n      76A      0.349197    77A      0.355823    78A      0.377656  \n      79A      0.382961    80A      0.398068    81A      0.406933  \n      82A      0.416412    83A      0.424050    84A      0.427629  \n      85A      0.448282    86A      0.461460    87A      0.470608  \n      88A      0.486172    89A      0.509041    90A      0.517927  \n      91A      0.528594    92A      0.537186    93A      0.540424  \n      94A      0.560433    95A      0.576495    96A      0.586437  \n      97A      0.591098    98A      0.604295    99A      0.607325  \n     100A      0.636618   101A      0.652790   102A      0.663630  \n     103A      0.674579   104A      0.684927   105A      0.700379  \n     106A      0.706900   107A      0.715258   108A      0.723980  \n     109A      0.736776   110A      0.754800   111A      0.781728  \n     112A      0.824451   113A      0.860341   114A      0.874854  \n     115A      0.891206   116A      0.924423   117A      0.948227  \n     118A      0.959955   119A      0.978334   120A      0.998948  \n     121A      1.008322   122A      1.014204   123A      1.047615  \n     124A      1.098192   125A      1.102762   126A      1.127114  \n     127A      1.144487   128A      1.152961   129A      1.175895  \n     130A      1.188277   131A      1.210590   132A      1.228890  \n     133A      1.240038   134A      1.259030   135A      1.267731  \n     136A      1.287899   137A      1.290429   138A      1.300427  \n     139A      1.315537   140A      1.336081   141A      1.363011  \n     142A      1.367230   143A      1.378686   144A      1.383307  \n     145A      1.391695   146A      1.422349   147A      1.443678  \n     148A      1.455432   149A      1.458482   150A      1.490371  \n     151A      1.506657   152A      1.525531   153A      1.540617  \n     154A      1.554739   155A      1.555964   156A      1.599256  \n     157A      1.627429   158A      1.636038   159A      1.648862  \n     160A      1.660744   161A      1.673878   162A      1.691633  \n     163A      1.696744   164A      1.710049   165A      1.730147  \n     166A      1.745171   167A      1.777323   168A      1.793342  \n     169A      1.796127   170A      1.813757   171A      1.820090  \n     172A      1.854293   173A      1.867475   174A      1.883270  \n     175A      1.890370   176A      1.899198   177A      1.927462  \n     178A      1.973143   179A      1.974765   180A      1.996167  \n     181A      2.000854   182A      2.009883   183A      2.044294  \n     184A      2.046979   185A      2.069536   186A      2.097825  \n     187A      2.109482   188A      2.116579   189A      2.134388  \n     190A      2.162501   191A      2.187925   192A      2.199932  \n     193A      2.228181   194A      2.257496   195A      2.273750  \n     196A      2.278023   197A      2.318876   198A      2.346970  \n     199A      2.387410   200A      2.407956   201A      2.473194  \n     202A      2.538518   203A      2.542387   204A      2.614267  \n     205A      2.649997   206A      2.693270   207A      2.753066  \n     208A      2.810438   209A      2.857156   210A      2.916622  \n     211A      2.944792   212A      2.951601   213A      2.997422  \n     214A      3.005825   215A      3.033971   216A      3.066790  \n     217A      3.080378   218A      3.125701   219A      3.152948  \n     220A      3.188172   221A      3.200368   222A      3.227525  \n     223A      3.240633   224A      3.267794   225A      3.315706  \n     226A      3.348486   227A      3.384474   228A      3.389412  \n     229A      3.412479   230A      3.427569   231A      3.450578  \n     232A      3.491836   233A      3.509920   234A      3.529231  \n     235A      3.541156   236A      3.573720   237A      3.594785  \n     238A      3.600939   239A      3.615668   240A      3.620862  \n     241A      3.660563   242A      3.669016   243A      3.699787  \n     244A      3.735819   245A      3.739623   246A      3.762896  \n     247A      3.779854   248A      3.796450   249A      3.860328  \n     250A      3.873125   251A      3.920465   252A      3.925888  \n     253A      3.944371   254A      3.966844   255A      4.013026  \n     256A      4.034828   257A      4.060121   258A      4.064080  \n     259A      4.078265   260A      4.118322   261A      4.136511  \n     262A      4.145357   263A      4.156957   264A      4.168275  \n     265A      4.171134   266A      4.190856   267A      4.232193  \n     268A      4.241884   269A      4.255834   270A      4.284431  \n     271A      4.288551   272A      4.295375   273A      4.320943  \n     274A      4.327785   275A      4.334790   276A      4.348041  \n     277A      4.365633   278A      4.368005   279A      4.375016  \n     280A      4.386100   281A      4.404026   282A      4.408636  \n     283A      4.446383   284A      4.463576   285A      4.467415  \n     286A      4.496994   287A      4.507315   288A      4.527920  \n     289A      4.540744   290A      4.544258   291A      4.555080  \n     292A      4.574679   293A      4.604819   294A      4.609313  \n     295A      4.626174   296A      4.651089   297A      4.657280  \n     298A      4.678734   299A      4.695002   300A      4.703073  \n     301A      4.709309   302A      4.747083   303A      4.756868  \n     304A      4.766346   305A      4.815108   306A      4.830379  \n     307A      4.845501   308A      4.876019   309A      4.886936  \n     310A      4.923481   311A      4.934879   312A      4.957287  \n     313A      4.964006   314A      5.001087   315A      5.031819  \n     316A      5.059008   317A      5.098023   318A      5.098836  \n     319A      5.107820   320A      5.119046   321A      5.125169  \n     322A      5.139652   323A      5.187082   324A      5.203970  \n     325A      5.208324   326A      5.220332   327A      5.250744  \n     328A      5.273686   329A      5.294561   330A      5.332131  \n     331A      5.345885   332A      5.366523   333A      5.378400  \n     334A      5.395924   335A      5.434171   336A      5.465747  \n     337A      5.488069   338A      5.489369   339A      5.501881  \n     340A      5.513485   341A      5.559395   342A      5.566283  \n     343A      5.573227   344A      5.616003   345A      5.623837  \n     346A      5.635407   347A      5.662506   348A      5.702099  \n     349A      5.709964   350A      5.729765   351A      5.743014  \n     352A      5.769307   353A      5.774545   354A      5.784649  \n     355A      5.816264   356A      5.841554   357A      5.878334  \n     358A      5.915145   359A      5.917773   360A      5.952874  \n     361A      5.959939   362A      5.991657   363A      6.018129  \n     364A      6.042487   365A      6.060465   366A      6.116948  \n     367A      6.143166   368A      6.171338   369A      6.186459  \n     370A      6.200088   371A      6.225177   372A      6.229263  \n     373A      6.248686   374A      6.321956   375A      6.370353  \n     376A      6.375986   377A      6.380479   378A      6.447968  \n     379A      6.516952   380A      6.547636   381A      6.596631  \n     382A      6.623044   383A      6.733085   384A      6.765923  \n     385A      6.791366   386A      6.814854   387A      6.893707  \n     388A      6.975088   389A      6.995526   390A      7.042511  \n     391A      7.070976   392A      7.103717   393A      7.243157  \n     394A      7.282037   395A      7.395103   396A      7.494048  \n     397A      7.569622   398A      8.097047   399A      8.866086  \n     400A      9.944721  \n\n    Final Occupation by Irrep:\n              A \n    DOCC [    39 ]\n\n  @DF-RKS Final Energy:  -542.69237903458782\n\n   => Energetics <=\n\n    Nuclear Repulsion Energy =            594.6969861901528702\n    One-Electron Energy =               -1916.5753694203199302\n    Two-Electron Energy =                 851.4244226434551592\n    DFT Exchange-Correlation Energy =     -72.5363016484054270\n    Empirical Dispersion Energy =           0.0000000000000000\n    VV10 Nonlocal Energy =                  0.2978832005294607\n    Total Energy =                       -542.6923790345878160\n\nComputation Completed\n\n\nProperties will be evaluated at   0.000000,   0.000000,   0.000000 [a0]\n\nProperties computed using the SCF density matrix\n\n  Nuclear Dipole Moment: [e a0]\n     X:    -2.6175      Y:     4.4557      Z:     1.0936\n\n  Electronic Dipole Moment: [e a0]\n     X:     1.3319      Y:    -2.0335      Z:    -0.7279\n\n  Dipole Moment: [e a0]\n     X:    -1.2857      Y:     2.4221      Z:     0.3657     Total:     2.7665\n\n  Dipole Moment: [D]\n     X:    -3.2678      Y:     6.1565      Z:     0.9295     Total:     7.0317\n\n\n*** tstop() called on bignimbus at Sun Apr 25 10:52:26 2021\nModule time:\n\tuser time   =     581.00 seconds =       9.68 minutes\n\tsystem time =      12.05 seconds =       0.20 minutes\n\ttotal time  =         39 seconds =       0.65 minutes\nTotal time:\n\tuser time   =     581.00 seconds =       9.68 minutes\n\tsystem time =      12.05 seconds =       0.20 minutes\n\ttotal time  =         39 seconds =       0.65 minutes\n\n    Psi4 stopped on: Sunday, 25 April 2021 10:52AM\n    Psi4 wall time for execution: 0:00:39.53\n\n*** Psi4 exiting successfully. Buy a developer a beer!\n",
 "stderr": null,
 "success": true,
 "error": null,
 "tag": "b97m-v pcseg-2 ggg_a"
}