{
 "id": null,
 "schema_name": "qcschema_output",
 "schema_version": 1,
 "molecule": {
  "validated": true,
  "symbols": [
   "C",
   "C",
   "C",
   "C",
   "C",
   "C",
   "C",
   "C",
   "C",
   "C",
   "C",
   "N",
   "N",
   "O",
   "O",
   "H",
   "H",
   "H",
   "H",
   "H",
   "H",
   "H",
   "H",
   "H",
   "H",
   "H",
   "H",
   "H",
   "H"
  ],
  "geometry": [
   3.5554869353951855,
   -3.23644091877854,
   0.8987056250420546,
   1.9118674021602333,
   -2.1200908793427033,
   -0.8500015780296057,
   -0.0895377578599026,
   -3.5708411847611807,
   -1.8005413780393948,
   -0.4747640977128567,
   -6.044851730949312,
   -0.9774258106692284,
   1.1492816523146046,
   -7.1168631263035325,
   0.8023390412743362,
   3.1792594713516618,
   -5.710740593063869,
   1.7242154754131813,
   2.245761221541251,
   0.606135743631911,
   -1.6208019673426013,
   0.5894710746351033,
   2.4603425768356337,
   -0.03477939668547637,
   1.1230805995851318,
   5.183783743501322,
   -0.9055878720099462,
   -3.646733649982087,
   0.9813503144721908,
   1.3272709438562589,
   -6.402859519713694,
   0.7233157709454254,
   0.5788449118686887,
   2.9003529027692156,
   6.4266093730618,
   0.4517494915748972,
   -2.1008904362044465,
   2.0184924833594606,
   -0.4250720922807827,
   -2.8823526603172738,
   0.225894501297913,
   3.416123180331954,
   0.03665248361979522,
   6.059902349238332,
   -2.7759424149557046,
   -6.847648137314955,
   -1.289714984198526,
   0.40530569258952154,
   3.2907967764545596,
   8.236747793019846,
   -0.030142008773602413,
   -7.5839118919590796,
   1.5008927181443117,
   2.0856010304673585,
   -6.862550517540313,
   1.6648434670629062,
   -1.2028077764742098,
   -2.8259896888993694,
   2.8377152149111846,
   -2.004539203008694,
   0.9944960751044792,
   2.2142076387208767,
   1.9726955636496297,
   1.765243552085961,
   0.8727024006151176,
   -3.618098862765987,
   4.218451993085055,
   1.1801306056091,
   -1.3713845749479217,
   -1.3569543934909605,
   -2.743813884311314,
   -3.1906276953784207,
   5.141386673854155,
   -2.150908532996669,
   1.6280132978183732,
   -2.0421180639765826,
   -7.138797177441721,
   -1.729223114064617,
   4.456661419829641,
   -6.532635397356992,
   3.1048512723987964,
   0.8413810157892601,
   -9.03585732999245,
   1.4615057494520332,
   3.4748976750489122,
   5.761297275524113,
   2.171277433543366
  ],
  "name": "C11H14N2O2",
  "molecular_charge": 0.0,
  "molecular_multiplicity": 1,
  "masses": [
   12.0,
   12.0,
   12.0,
   12.0,
   12.0,
   12.0,
   12.0,
   12.0,
   12.0,
   12.0,
   12.0,
   14.00307400443,
   14.00307400443,
   15.99491461957,
   15.99491461957,
   1.00782503223,
   1.00782503223,
   1.00782503223,
   1.00782503223,
   1.00782503223,
   1.00782503223,
   1.00782503223,
   1.00782503223,
   1.00782503223,
   1.00782503223,
   1.00782503223,
   1.00782503223,
   1.00782503223,
   1.00782503223
  ],
  "real": [
   true,
   true,
   true,
   true,
   true,
   true,
   true,
   true,
   true,
   true,
   true,
   true,
   true,
   true,
   true,
   true,
   true,
   true,
   true,
   true,
   true,
   true,
   true,
   true,
   true,
   true,
   true,
   true,
   true
  ],
  "atom_labels": [
   "",
   "",
   "",
   "",
   "",
   "",
   "",
   "",
   "",
   "",
   "",
   "",
   "",
   "",
   "",
   "",
   "",
   "",
   "",
   "",
   "",
   "",
   "",
   "",
   "",
   "",
   "",
   "",
   ""
  ],
  "atomic_numbers": [
   6,
   6,
   6,
   6,
   6,
   6,
   6,
   6,
   6,
   6,
   6,
   7,
   7,
   8,
   8,
   1,
   1,
   1,
   1,
   1,
   1,
   1,
   1,
   1,
   1,
   1,
   1,
   1,
   1
  ],
  "mass_numbers": [
   12,
   12,
   12,
   12,
   12,
   12,
   12,
   12,
   12,
   12,
   12,
   14,
   14,
   16,
   16,
   1,
   1,
   1,
   1,
   1,
   1,
   1,
   1,
   1,
   1,
   1,
   1,
   1,
   1
  ],
  "fragments": [
   [
    0,
    1,
    2,
    3,
    4,
    5,
    6,
    7,
    8,
    9,
    10,
    11,
    12,
    13,
    14,
    15,
    16,
    17,
    18,
    19,
    20,
    21,
    22,
    23,
    24,
    25,
    26,
    27,
    28
   ]
  ],
  "fragment_charges": [
   0.0
  ],
  "fragment_multiplicities": [
   1
  ],
  "fix_com": false,
  "fix_orientation": false,
  "provenance": {
   "creator": "QCElemental",
   "version": "v0.19.0",
   "routine": "qcelemental.molparse.from_string"
  }
 },
 "driver": "energy",
 "model": {
  "method": "m062x-d3",
  "basis": "def2-svpd"
 },
 "keywords": {},
 "protocols": {},
 "extras": {
  "qcvars": {
   "2-BODY DISPERSION CORRECTION ENERGY": -0.00163322,
   "CURRENT DIPOLE X": 1.71168042075142,
   "CURRENT DIPOLE Y": 1.1267774391544638,
   "CURRENT DIPOLE Z": -0.1519645536615067,
   "CURRENT ENERGY": -686.8382214969791,
   "CURRENT REFERENCE ENERGY": -686.8382214969791,
   "DFT FUNCTIONAL TOTAL ENERGY": -686.8365882769792,
   "DFT TOTAL ENERGY": -686.8382214969793,
   "DFT VV10 ENERGY": 0.0,
   "DFT XC ENERGY": -46.05777233042177,
   "DISPERSION CORRECTION ENERGY": -0.00163322,
   "M06-2X-D3 DISPERSION CORRECTION ENERGY": -0.00163322,
   "NUCLEAR REPULSION ENERGY": 980.0399976067333,
   "ONE-ELECTRON ENERGY": -2877.2163479671003,
   "PCM POLARIZATION ENERGY": 0.0,
   "PE ENERGY": 0.0,
   "SCF DIPOLE X": 1.71168042075142,
   "SCF DIPOLE Y": 1.1267774391544638,
   "SCF DIPOLE Z": -0.1519645536615067,
   "SCF ITERATION ENERGY": -686.8382214969791,
   "SCF ITERATIONS": 9.0,
   "SCF TOTAL ENERGY": -686.8382214969791,
   "TWO-ELECTRON ENERGY": 1256.3975344138096,
   "XC GRID RADIAL POINTS": 75.0,
   "XC GRID SPHERICAL POINTS": 302.0,
   "XC GRID TOTAL POINTS": 603992.0,
   "CURRENT DIPOLE": [
    0.6734268949112758,
    0.4433083552902702,
    -0.05978745580551826
   ],
   "SCF DIPOLE": [
    0.6734268949112758,
    0.4433083552902702,
    -0.05978745580551826
   ]
  }
 },
 "provenance": {
  "creator": "Psi4",
  "version": "1.4a2.dev923",
  "routine": "psi4.schema_runner.run_qcschema",
  "memory": 64.0,
  "qcengine_version": "v0.17.0",
  "nthreads": 16,
  "hostname": "bignimbus",
  "cpu": "AMD EPYC Processor (with IBPB)",
  "wall_time": 44.47001671791077,
  "username": "ubuntu"
 },
 "properties": {
  "calcinfo_nbasis": 418,
  "calcinfo_nmo": 418,
  "calcinfo_nalpha": 55,
  "calcinfo_nbeta": 55,
  "calcinfo_natom": 29,
  "nuclear_repulsion_energy": 980.0399976067333,
  "return_energy": -686.8382214969791,
  "scf_one_electron_energy": -2877.2163479671003,
  "scf_two_electron_energy": 1256.3975344138096,
  "scf_xc_energy": -46.05777233042177,
  "scf_dispersion_correction_energy": -0.00163322,
  "scf_dipole_moment": [
   0.6734268949112758,
   0.4433083552902702,
   -0.05978745580551826
  ],
  "scf_total_energy": -686.8382214969791,
  "scf_iterations": 9
 },
 "wavefunction": null,
 "return_result": -686.8382214969791,
 "stdout": "\n    -----------------------------------------------------------------------\n          Psi4: An Open-Source Ab Initio Electronic Structure Package\n                               Psi4 1.4a2.dev923 \n\n                         Git: Rev {master} 5de566e \n\n\n    D. G. A. Smith, L. A. Burns, A. C. Simmonett, R. M. Parrish,\n    M. C. Schieber, R. Galvelis, P. Kraus, H. Kruse, R. Di Remigio,\n    A. Alenaizan, A. M. James, S. Lehtola, J. P. Misiewicz, M. Scheurer,\n    R. A. Shaw, J. B. Schriber, Y. Xie, Z. L. Glick, D. A. Sirianni,\n    J. S. O'Brien, J. M. Waldrop, A. Kumar, E. G. Hohenstein,\n    B. P. Pritchard, B. R. Brooks, H. F. Schaefer III, A. Yu. Sokolov,\n    K. Patkowski, A. E. DePrince III, U. Bozkaya, R. A. King,\n    F. A. Evangelista, J. M. Turney, T. D. Crawford, C. D. Sherrill,\n    J. Chem. Phys. 152(18) 184108 (2020). https://doi.org/10.1063/5.0006002\n\n                            Additional Code Authors\n    E. T. Seidl, C. L. Janssen, E. F. Valeev, M. L. Leininger,\n    J. F. Gonthier, R. M. Richard, H. R. McAlexander, M. Saitow, X. Wang,\n    P. Verma, and M. H. Lechner\n\n             Previous Authors, Complete List of Code Contributors,\n                       and Citations for Specific Modules\n    https://github.com/psi4/psi4/blob/master/codemeta.json\n    https://github.com/psi4/psi4/graphs/contributors\n    http://psicode.org/psi4manual/master/introduction.html#citing-psifour\n\n    -----------------------------------------------------------------------\n\n\n    Psi4 started on: Saturday, 24 April 2021 12:14PM\n\n    Process ID: 3785089\n    Host:       bignimbus\n    PSIDATADIR: /home/ubuntu/pk/Applications/miniconda3/envs/psi4-1.4a2.dev923/share/psi4\n    Memory:     59.6 GiB\n    Threads:    16\n    \n  ==> Input QCSchema <==\n\n--------------------------------------------------------------------------\n{'driver': 'energy',\n 'extras': {},\n 'id': None,\n 'keywords': {},\n 'model': {'basis': 'def2-svpd', 'method': 'm062x-d3'},\n 'molecule': {'atom_labels': ['', '', '', '', '', '', '', '', '', '', '', '', '', '', '', '', '', '', '', '', '', '',\n                              '', '', '', '', '', '', ''],\n              'atomic_numbers': [6, 6, 6, 6, 6, 6, 6, 6, 6, 6, 6, 7, 7, 8, 8, 1, 1, 1, 1, 1, 1, 1, 1, 1, 1, 1, 1, 1, 1],\n              'fix_com': False,\n              'fix_orientation': False,\n              'fragment_charges': [0.0],\n              'fragment_multiplicities': [1],\n              'fragments': [[0, 1, 2, 3, 4, 5, 6, 7, 8, 9, 10, 11, 12, 13, 14, 15, 16, 17, 18, 19, 20, 21, 22, 23, 24,\n                             25, 26, 27, 28]],\n              'geometry': [3.5554869353951926, -3.236440918778536, 0.8987056250420729, 1.9118674021602402,\n                           -2.1200908793426994, -0.8500015780295875, -0.0895377578598957, -3.5708411847611767,\n                           -1.8005413780393766, -0.47476409771284983, -6.044851730949308, -0.9774258106692102,\n                           1.1492816523146114, -7.116863126303528, 0.8023390412743544, 3.179259471351669,\n                           -5.710740593063864, 1.7242154754131995, 2.245761221541258, 0.6061357436319152,\n                           -1.620801967342583, 0.5894710746351102, 2.4603425768356377, -0.03477939668545815,\n                           1.1230805995851387, 5.183783743501326, -0.905587872009928, -3.64673364998208,\n                           0.981350314472195, 1.327270943856277, -6.402859519713687, 0.7233157709454296,\n                           0.5788449118687069, 2.9003529027692228, 6.426609373061805, 0.4517494915749154,\n                           -2.1008904362044394, 2.0184924833594646, -0.4250720922807645, -2.8823526603172667,\n                           0.22589450129791722, 3.4161231803319723, 0.03665248361980211, 6.059902349238336,\n                           -2.7759424149556864, -6.847648137314948, -1.2897149841985218, 0.40530569258953975,\n                           3.2907967764545667, 8.23674779301985, -0.030142008773584198, -7.5839118919590724,\n                           1.500892718144316, 2.0856010304673767, -6.862550517540306, 1.6648434670629104,\n                           -1.2028077764741916, -2.8259896888993623, 2.8377152149111886, -2.004539203008676,\n                           0.9944960751044861, 2.2142076387208807, 1.972695563649648, 1.765243552085968,\n                           0.8727024006151218, -3.6180988627659687, 4.218451993085062, 1.1801306056091043,\n                           -1.3713845749479034, -1.3569543934909536, -2.74381388431131, -3.1906276953784025,\n                           5.1413866738541625, -2.150908532996665, 1.6280132978183914, -2.0421180639765755,\n                           -7.138797177441717, -1.7292231140645988, 4.456661419829648, -6.532635397356987,\n                           3.1048512723988146, 0.8413810157892669, -9.035857329992446, 1.4615057494520514,\n                           3.4748976750489193, 5.761297275524117, 2.171277433543384],\n              'mass_numbers': [12, 12, 12, 12, 12, 12, 12, 12, 12, 12, 12, 14, 14, 16, 16, 1, 1, 1, 1, 1, 1, 1, 1, 1, 1,\n                               1, 1, 1, 1],\n              'masses': [12.0, 12.0, 12.0, 12.0, 12.0, 12.0, 12.0, 12.0, 12.0, 12.0, 12.0, 14.00307400443,\n                         14.00307400443, 15.99491461957, 15.99491461957, 1.00782503223, 1.00782503223, 1.00782503223,\n                         1.00782503223, 1.00782503223, 1.00782503223, 1.00782503223, 1.00782503223, 1.00782503223,\n                         1.00782503223, 1.00782503223, 1.00782503223, 1.00782503223, 1.00782503223],\n              'molecular_charge': 0.0,\n              'molecular_multiplicity': 1,\n              'name': 'C11H14N2O2',\n              'provenance': {'creator': 'QCElemental',\n                             'routine': 'qcelemental.molparse.from_string',\n                             'version': 'v0.19.0'},\n              'real': [True, True, True, True, True, True, True, True, True, True, True, True, True, True, True, True,\n                       True, True, True, True, True, True, True, True, True, True, True, True, True],\n              'symbols': ['C', 'C', 'C', 'C', 'C', 'C', 'C', 'C', 'C', 'C', 'C', 'N', 'N', 'O', 'O', 'H', 'H', 'H', 'H',\n                          'H', 'H', 'H', 'H', 'H', 'H', 'H', 'H', 'H', 'H'],\n              'validated': True},\n 'protocols': {},\n 'provenance': {'creator': 'QCElemental', 'routine': 'qcelemental.models.results', 'version': 'v0.17.0'},\n 'schema_name': 'qcschema_input',\n 'schema_version': 1}\n--------------------------------------------------------------------------\n\nScratch directory: /tmp/tmp3e5lpx4j_psi_scratch/\n\n*** tstart() called on bignimbus\n*** at Sat Apr 24 12:14:32 2021\n\n   => Loading Basis Set <=\n\n    Name: DEF2-SVPD\n    Role: ORBITAL\n    Keyword: BASIS\n    atoms 1-11  entry C          line   101 file /home/ubuntu/pk/Applications/miniconda3/envs/psi4-1.4a2.dev923/share/psi4/basis/def2-svpd.gbs \n    atoms 12-13 entry N          line   125 file /home/ubuntu/pk/Applications/miniconda3/envs/psi4-1.4a2.dev923/share/psi4/basis/def2-svpd.gbs \n    atoms 14-15 entry O          line   149 file /home/ubuntu/pk/Applications/miniconda3/envs/psi4-1.4a2.dev923/share/psi4/basis/def2-svpd.gbs \n    atoms 16-29 entry H          line    14 file /home/ubuntu/pk/Applications/miniconda3/envs/psi4-1.4a2.dev923/share/psi4/basis/def2-svpd.gbs \n\n   => M06-2X-D3: Empirical Dispersion <=\n\n    Grimme's -D3 (zero-damping) Dispersion Correction\n    Grimme S.; Antony J.; Ehrlich S.; Krieg H. (2010), J. Chem. Phys., 132: 154104\n    Parametrisation from:    L. Goerigk, S. Grimme, Phys. Chem. Chem. Phys. 13, 6670-6688, 2011\n\n        s6 =       1.000000\n        s8 =       0.000000\n       sr6 =       1.619000\n    alpha6 =      14.000000\n       sr8 =       1.000000\n\n\n         ---------------------------------------------------------\n                                   SCF\n               by Justin Turney, Rob Parrish, Andy Simmonett\n                          and Daniel G. A. Smith\n                              RKS Reference\n                       16 Threads,  61035 MiB Core\n         ---------------------------------------------------------\n\n  ==> Geometry <==\n\n    Molecular point group: c1\n    Full point group: C1\n\n    Geometry (in Bohr), charge = 0, multiplicity = 1:\n\n       Center              X                  Y                   Z               Mass       \n    ------------   -----------------  -----------------  -----------------  -----------------\n         C            3.555486935395    -3.236440918779     0.898705625042    12.000000000000\n         C            1.911867402160    -2.120090879343    -0.850001578030    12.000000000000\n         C           -0.089537757860    -3.570841184761    -1.800541378039    12.000000000000\n         C           -0.474764097713    -6.044851730949    -0.977425810669    12.000000000000\n         C            1.149281652315    -7.116863126304     0.802339041274    12.000000000000\n         C            3.179259471352    -5.710740593064     1.724215475413    12.000000000000\n         C            2.245761221541     0.606135743632    -1.620801967343    12.000000000000\n         C            0.589471074635     2.460342576836    -0.034779396685    12.000000000000\n         C            1.123080599585     5.183783743501    -0.905587872010    12.000000000000\n         C           -3.646733649982     0.981350314472     1.327270943856    12.000000000000\n         C           -6.402859519714     0.723315770945     0.578844911869    12.000000000000\n         N            2.900352902769     6.426609373062     0.451749491575    14.003074004430\n         N           -2.100890436204     2.018492483359    -0.425072092281    14.003074004430\n         O           -2.882352660317     0.225894501298     3.416123180332    15.994914619570\n         O            0.036652483620     6.059902349238    -2.775942414956    15.994914619570\n         H           -6.847648137315    -1.289714984199     0.405305692590     1.007825032230\n         H            3.290796776455     8.236747793020    -0.030142008774     1.007825032230\n         H           -7.583911891959     1.500892718144     2.085601030467     1.007825032230\n         H           -6.862550517540     1.664843467063    -1.202807776474     1.007825032230\n         H           -2.825989688899     2.837715214911    -2.004539203009     1.007825032230\n         H            0.994496075104     2.214207638721     1.972695563650     1.007825032230\n         H            1.765243552086     0.872702400615    -3.618098862766     1.007825032230\n         H            4.218451993085     1.180130605609    -1.371384574948     1.007825032230\n         H           -1.356954393491    -2.743813884311    -3.190627695378     1.007825032230\n         H            5.141386673854    -2.150908532997     1.628013297818     1.007825032230\n         H           -2.042118063977    -7.138797177442    -1.729223114065     1.007825032230\n         H            4.456661419830    -6.532635397357     3.104851272399     1.007825032230\n         H            0.841381015789    -9.035857329992     1.461505749452     1.007825032230\n         H            3.474897675049     5.761297275524     2.171277433543     1.007825032230\n\n  Running in c1 symmetry.\n\n  Rotational constants: A =      0.02825  B =      0.01408  C =      0.01109 [cm^-1]\n  Rotational constants: A =    846.77580  B =    422.03348  C =    332.43779 [MHz]\n  Nuclear repulsion =  980.039997606733323\n\n  Charge       = 0\n  Multiplicity = 1\n  Electrons    = 110\n  Nalpha       = 55\n  Nbeta        = 55\n\n  ==> Algorithm <==\n\n  SCF Algorithm Type is DF.\n  DIIS enabled.\n  MOM disabled.\n  Fractional occupation disabled.\n  Guess Type is SAD.\n  Energy threshold   = 1.00e-06\n  Density threshold  = 1.00e-06\n  Integral threshold = 0.00e+00\n\n  ==> Primary Basis <==\n\n  Basis Set: DEF2-SVPD\n    Blend: DEF2-SVPD\n    Number of shells: 178\n    Number of basis function: 418\n    Number of Cartesian functions: 448\n    Spherical Harmonics?: true\n    Max angular momentum: 2\n\n  ==> DFT Potential <==\n\n   => Composite Functional: M06-2X-D3ZERO <= \n\n    Hybrid M06-2X Meta-GGA XC Functional\n\n    Y. Zhao and D. G. Truhlar,  Theor. Chem. Acc., 120, 215, 2008\n\n\n    Deriv               =              1\n    GGA                 =           TRUE\n    Meta                =           TRUE\n\n    Exchange Hybrid     =           TRUE\n    MP2 Hybrid          =          FALSE\n\n   => Exchange Functionals <=\n\n    1.0000   XC_HYB_MGGA_X_M06_2X\n\n   => Exact (HF) Exchange <=\n\n    0.5400               HF \n\n   => Correlation Functionals <=\n\n    1.0000   XC_MGGA_C_M06_2X\n\n   => LibXC Density Thresholds  <==\n\n    XC_MGGA_C_M06_2X:  1.00E-23 \n    XC_HYB_MGGA_X_M06_2X:  1.00E-20 \n\n   => Molecular Quadrature <=\n\n    Radial Scheme          =       TREUTLER\n    Pruning Scheme         =           NONE\n    Nuclear Scheme         =       TREUTLER\n\n    BS radius alpha        =              1\n    Pruning alpha          =              1\n    Radial Points          =             75\n    Spherical Points       =            302\n    Total Points           =         603992\n    Total Blocks           =           4341\n    Max Points             =            256\n    Max Functions          =            368\n    Weights Tolerance      =       1.00E-15\n\n   => Loading Basis Set <=\n\n    Name: (DEF2-SVPD AUX)\n    Role: JKFIT\n    Keyword: DF_BASIS_SCF\n    atoms 1-11  entry C          line   198 file /home/ubuntu/pk/Applications/miniconda3/envs/psi4-1.4a2.dev923/share/psi4/basis/def2-universal-jkfit.gbs \n    atoms 12-13 entry N          line   258 file /home/ubuntu/pk/Applications/miniconda3/envs/psi4-1.4a2.dev923/share/psi4/basis/def2-universal-jkfit.gbs \n    atoms 14-15 entry O          line   318 file /home/ubuntu/pk/Applications/miniconda3/envs/psi4-1.4a2.dev923/share/psi4/basis/def2-universal-jkfit.gbs \n    atoms 16-29 entry H          line    18 file /home/ubuntu/pk/Applications/miniconda3/envs/psi4-1.4a2.dev923/share/psi4/basis/def2-universal-jkfit.gbs \n\n  ==> Integral Setup <==\n\n  DFHelper Memory: AOs need 1.727 GiB; user supplied 32.109 GiB. Using in-core AOs.\n\n  ==> MemDFJK: Density-Fitted J/K Matrices <==\n\n    J tasked:                   Yes\n    K tasked:                   Yes\n    wK tasked:                   No\n    OpenMP threads:              16\n    Memory [MiB]:             32879\n    Algorithm:                 Core\n    Schwarz Cutoff:           1E-12\n    Mask sparsity (%):       8.0848\n    Fitting Condition:        1E-10\n\n   => Auxiliary Basis Set <=\n\n  Basis Set: (DEF2-SVPD AUX)\n    Blend: DEF2-UNIVERSAL-JKFIT\n    Number of shells: 459\n    Number of basis function: 1385\n    Number of Cartesian functions: 1631\n    Spherical Harmonics?: true\n    Max angular momentum: 4\n\n  Cached 100.0% of DFT collocation blocks in 12.595 [GiB].\n\n  Minimum eigenvalue in the overlap matrix is 5.3081464840E-06.\n  Reciprocal condition number of the overlap matrix is 3.8976517639E-07.\n    Using symmetric orthogonalization.\n\n  ==> Pre-Iterations <==\n\n  SCF Guess: Superposition of Atomic Densities via on-the-fly atomic UHF (no occupation information).\n\n   -------------------------\n    Irrep   Nso     Nmo    \n   -------------------------\n     A        418     418 \n   -------------------------\n    Total     418     418\n   -------------------------\n\n  ==> Iterations <==\n\n                           Total Energy        Delta E     RMS |[F,P]|\n\n   @DF-RKS iter SAD:  -686.14536980899379   -6.86145e+02   0.00000e+00 \n   @DF-RKS iter   1:  -686.20349540704046   -5.81256e-02   2.73465e-03 DIIS\n   @DF-RKS iter   2:  -686.17960049820590    2.38949e-02   2.98023e-03 DIIS\n   @DF-RKS iter   3:  -686.80995830950599   -6.30358e-01   6.25696e-04 DIIS\n   @DF-RKS iter   4:  -686.83655833563978   -2.66000e-02   1.46452e-04 DIIS\n   @DF-RKS iter   5:  -686.83804083868222   -1.48250e-03   4.54160e-05 DIIS\n   @DF-RKS iter   6:  -686.83820079743464   -1.59959e-04   1.49567e-05 DIIS\n   @DF-RKS iter   7:  -686.83821852921426   -1.77318e-05   5.38656e-06 DIIS\n   @DF-RKS iter   8:  -686.83822090630849   -2.37709e-06   2.48835e-06 DIIS\n   @DF-RKS iter   9:  -686.83822149697914   -5.90671e-07   7.48716e-07 DIIS\n  Energy and wave function converged.\n\n\n  ==> Post-Iterations <==\n\n    Orbital Energies [Eh]\n    ---------------------\n\n    Doubly Occupied:                                                      \n\n       1A    -19.627335     2A    -19.595955     3A    -14.809963  \n       4A    -14.790796     5A    -10.682296     6A    -10.659333  \n       7A    -10.615326     8A    -10.572343     9A    -10.568154  \n      10A    -10.558346    11A    -10.558184    12A    -10.557650  \n      13A    -10.557564    14A    -10.557224    15A    -10.556219  \n      16A     -1.161908    17A     -1.130096    18A     -1.026719  \n      19A     -1.023076    20A     -0.955301    21A     -0.889658  \n      22A     -0.841815    23A     -0.833230    24A     -0.806909  \n      25A     -0.750442    26A     -0.693438    27A     -0.684832  \n      28A     -0.667523    29A     -0.662038    30A     -0.643122  \n      31A     -0.595034    32A     -0.574394    33A     -0.559437  \n      34A     -0.548423    35A     -0.538805    36A     -0.525547  \n      37A     -0.523738    38A     -0.510002    39A     -0.500860  \n      40A     -0.488072    41A     -0.477090    42A     -0.470666  \n      43A     -0.468219    44A     -0.457719    45A     -0.441445  \n      46A     -0.431262    47A     -0.418804    48A     -0.404580  \n      49A     -0.400536    50A     -0.361655    51A     -0.355627  \n      52A     -0.325826    53A     -0.321660    54A     -0.307125  \n      55A     -0.297429  \n\n    Virtual:                                                              \n\n      56A      0.012206    57A      0.017820    58A      0.022541  \n      59A      0.034903    60A      0.041161    61A      0.048950  \n      62A      0.056109    63A      0.064331    64A      0.066698  \n      65A      0.069635    66A      0.080644    67A      0.084252  \n      68A      0.090717    69A      0.099023    70A      0.106816  \n      71A      0.108606    72A      0.116995    73A      0.121659  \n      74A      0.130565    75A      0.134725    76A      0.145322  \n      77A      0.147286    78A      0.154030    79A      0.158435  \n      80A      0.160919    81A      0.166612    82A      0.172744  \n      83A      0.181224    84A      0.182116    85A      0.190408  \n      86A      0.191980    87A      0.200400    88A      0.202567  \n      89A      0.208166    90A      0.210981    91A      0.216478  \n      92A      0.224367    93A      0.228715    94A      0.234747  \n      95A      0.237340    96A      0.243698    97A      0.246787  \n      98A      0.255629    99A      0.258848   100A      0.262665  \n     101A      0.266200   102A      0.275087   103A      0.279395  \n     104A      0.283701   105A      0.286092   106A      0.288536  \n     107A      0.301492   108A      0.305006   109A      0.309799  \n     110A      0.312002   111A      0.320430   112A      0.324731  \n     113A      0.328507   114A      0.329113   115A      0.336146  \n     116A      0.339841   117A      0.344108   118A      0.345394  \n     119A      0.352937   120A      0.354271   121A      0.358759  \n     122A      0.362562   123A      0.363197   124A      0.368272  \n     125A      0.374485   126A      0.378818   127A      0.381113  \n     128A      0.385652   129A      0.387412   130A      0.394832  \n     131A      0.396782   132A      0.400474   133A      0.407906  \n     134A      0.411022   135A      0.414361   136A      0.417288  \n     137A      0.421047   138A      0.422804   139A      0.428151  \n     140A      0.430397   141A      0.432443   142A      0.440387  \n     143A      0.442082   144A      0.444724   145A      0.448776  \n     146A      0.452462   147A      0.460120   148A      0.464974  \n     149A      0.465706   150A      0.466855   151A      0.470166  \n     152A      0.477027   153A      0.483680   154A      0.487805  \n     155A      0.493536   156A      0.495662   157A      0.501626  \n     158A      0.502099   159A      0.504821   160A      0.511413  \n     161A      0.514533   162A      0.516958   163A      0.526972  \n     164A      0.528341   165A      0.533357   166A      0.540090  \n     167A      0.549509   168A      0.553802   169A      0.561513  \n     170A      0.567314   171A      0.572513   172A      0.572684  \n     173A      0.576607   174A      0.585605   175A      0.586916  \n     176A      0.591767   177A      0.595950   178A      0.602157  \n     179A      0.612021   180A      0.615051   181A      0.619081  \n     182A      0.625850   183A      0.638037   184A      0.641993  \n     185A      0.647907   186A      0.652606   187A      0.654293  \n     188A      0.657309   189A      0.663987   190A      0.670832  \n     191A      0.674500   192A      0.677913   193A      0.682128  \n     194A      0.694892   195A      0.700990   196A      0.706588  \n     197A      0.713541   198A      0.719671   199A      0.726320  \n     200A      0.733741   201A      0.741709   202A      0.750794  \n     203A      0.756074   204A      0.756822   205A      0.772799  \n     206A      0.776805   207A      0.777159   208A      0.792463  \n     209A      0.796241   210A      0.803872   211A      0.811330  \n     212A      0.813925   213A      0.817111   214A      0.824874  \n     215A      0.826792   216A      0.834360   217A      0.848021  \n     218A      0.854914   219A      0.859004   220A      0.870168  \n     221A      0.874093   222A      0.885825   223A      0.895494  \n     224A      0.916980   225A      0.924514   226A      0.930433  \n     227A      0.945473   228A      0.952187   229A      0.967545  \n     230A      0.982919   231A      0.996297   232A      0.997062  \n     233A      1.015412   234A      1.024499   235A      1.025669  \n     236A      1.030534   237A      1.039147   238A      1.043992  \n     239A      1.047835   240A      1.061602   241A      1.070242  \n     242A      1.077544   243A      1.082113   244A      1.088672  \n     245A      1.097518   246A      1.102338   247A      1.108233  \n     248A      1.126489   249A      1.140248   250A      1.147600  \n     251A      1.155105   252A      1.163046   253A      1.167952  \n     254A      1.172033   255A      1.174753   256A      1.185172  \n     257A      1.199059   258A      1.219322   259A      1.226851  \n     260A      1.234958   261A      1.240286   262A      1.248470  \n     263A      1.267726   264A      1.275643   265A      1.289193  \n     266A      1.301922   267A      1.305107   268A      1.332116  \n     269A      1.335379   270A      1.340694   271A      1.350451  \n     272A      1.368037   273A      1.376861   274A      1.388324  \n     275A      1.400458   276A      1.406793   277A      1.409534  \n     278A      1.422514   279A      1.444617   280A      1.463715  \n     281A      1.496275   282A      1.516736   283A      1.552202  \n     284A      1.555611   285A      1.590463   286A      1.595029  \n     287A      1.605905   288A      1.611712   289A      1.632781  \n     290A      1.640731   291A      1.652174   292A      1.663996  \n     293A      1.668271   294A      1.678499   295A      1.694002  \n     296A      1.695364   297A      1.717125   298A      1.723172  \n     299A      1.740524   300A      1.753187   301A      1.770070  \n     302A      1.774787   303A      1.776774   304A      1.790812  \n     305A      1.797463   306A      1.807191   307A      1.817899  \n     308A      1.847099   309A      1.851178   310A      1.866035  \n     311A      1.878829   312A      1.882788   313A      1.907601  \n     314A      1.914410   315A      1.922446   316A      1.930488  \n     317A      1.937916   318A      1.945065   319A      1.952185  \n     320A      1.956486   321A      1.974619   322A      1.981520  \n     323A      1.994380   324A      2.001637   325A      2.005110  \n     326A      2.014540   327A      2.031688   328A      2.044568  \n     329A      2.045520   330A      2.056470   331A      2.067821  \n     332A      2.071456   333A      2.081883   334A      2.085884  \n     335A      2.097794   336A      2.111805   337A      2.118247  \n     338A      2.129503   339A      2.149155   340A      2.152701  \n     341A      2.159102   342A      2.170191   343A      2.176890  \n     344A      2.202828   345A      2.210591   346A      2.232658  \n     347A      2.242173   348A      2.247663   349A      2.254222  \n     350A      2.267727   351A      2.284250   352A      2.295025  \n     353A      2.315177   354A      2.326360   355A      2.334714  \n     356A      2.349303   357A      2.372747   358A      2.388689  \n     359A      2.393073   360A      2.407965   361A      2.433767  \n     362A      2.438267   363A      2.459078   364A      2.468802  \n     365A      2.482749   366A      2.495028   367A      2.502927  \n     368A      2.519485   369A      2.539440   370A      2.557630  \n     371A      2.566124   372A      2.586477   373A      2.595153  \n     374A      2.610518   375A      2.642707   376A      2.673807  \n     377A      2.682086   378A      2.698985   379A      2.703212  \n     380A      2.716222   381A      2.747941   382A      2.793736  \n     383A      2.816499   384A      2.852235   385A      2.860832  \n     386A      2.867398   387A      2.878396   388A      2.896267  \n     389A      2.923162   390A      2.950853   391A      2.997064  \n     392A      3.019443   393A      3.025141   394A      3.033100  \n     395A      3.044008   396A      3.061534   397A      3.078759  \n     398A      3.083944   399A      3.101341   400A      3.116889  \n     401A      3.144751   402A      3.162152   403A      3.187201  \n     404A      3.201915   405A      3.222724   406A      3.232078  \n     407A      3.265924   408A      3.282829   409A      3.319563  \n     410A      3.323447   411A      3.335621   412A      3.441797  \n     413A      3.512118   414A      3.604156   415A      3.658663  \n     416A      3.691429   417A      3.848340   418A      3.872819  \n\n    Final Occupation by Irrep:\n              A \n    DOCC [    55 ]\n\n  @DF-RKS Final Energy:  -686.83822149697914\n\n   => Energetics <=\n\n    Nuclear Repulsion Energy =            980.0399976067333228\n    One-Electron Energy =               -2877.2163479671003188\n    Two-Electron Energy =                1256.3975344138095807\n    DFT Exchange-Correlation Energy =     -46.0577723304217699\n    Empirical Dispersion Energy =          -0.0016332200000000\n    VV10 Nonlocal Energy =                  0.0000000000000000\n    Total Energy =                       -686.8382214969792585\n\nComputation Completed\n\n\nProperties will be evaluated at   0.000000,   0.000000,   0.000000 [a0]\n\nProperties computed using the SCF density matrix\n\n  Nuclear Dipole Moment: [e a0]\n     X:    -1.6633      Y:    -2.2905      Z:    -0.1560\n\n  Electronic Dipole Moment: [e a0]\n     X:     2.3368      Y:     2.7338      Z:     0.0962\n\n  Dipole Moment: [e a0]\n     X:     0.6734      Y:     0.4433      Z:    -0.0598     Total:     0.8085\n\n  Dipole Moment: [D]\n     X:     1.7117      Y:     1.1268      Z:    -0.1520     Total:     2.0549\n\n\n*** tstop() called on bignimbus at Sat Apr 24 12:15:12 2021\nModule time:\n\tuser time   =     517.19 seconds =       8.62 minutes\n\tsystem time =      24.25 seconds =       0.40 minutes\n\ttotal time  =         40 seconds =       0.67 minutes\nTotal time:\n\tuser time   =     517.19 seconds =       8.62 minutes\n\tsystem time =      24.25 seconds =       0.40 minutes\n\ttotal time  =         40 seconds =       0.67 minutes\n\n    Psi4 stopped on: Saturday, 24 April 2021 12:15PM\n    Psi4 wall time for execution: 0:00:39.52\n\n*** Psi4 exiting successfully. Buy a developer a beer!\n",
 "stderr": null,
 "success": true,
 "error": null,
 "tag": "m062x-d3 def2-svpd phe_a"
}