{
 "id": null,
 "schema_name": "qcschema_output",
 "schema_version": 1,
 "molecule": {
  "validated": true,
  "symbols": [
   "N",
   "C",
   "N",
   "C",
   "C",
   "O",
   "N",
   "C",
   "N",
   "N",
   "C",
   "H",
   "H",
   "H",
   "H",
   "H"
  ],
  "geometry": [
   1.9795091944628953,
   2.1064834459358144,
   -3.2710258001379717,
   3.442157215567254,
   0.044792243061322456,
   -3.8587306251553546,
   3.037755824719278,
   -1.9205229274148177,
   -2.447105209438357,
   1.132911890257787,
   -1.157073572729854,
   -0.8011537541645827,
   -0.012262141769655687,
   -2.415631172284768,
   1.2151840216989083,
   0.2787556815508495,
   -4.558580598553946,
   1.9767436502584184,
   -1.7942738780763894,
   -0.8301509530256518,
   2.4756313473792826,
   -2.3895376075956043,
   1.6208238316931525,
   1.8860367962364304,
   -4.060055502500323,
   2.879381431248068,
   3.327897829960767,
   -1.346408786342883,
   2.818910195233415,
   -0.06605029136148673,
   0.4469413067165973,
   1.3279162822471884,
   -1.2830339161563362,
   1.9190379584482442,
   3.80723695884786,
   -4.140299817848581,
   -2.720239679550724,
   -1.6994249707362516,
   3.9722944387418746,
   4.817877834900553,
   0.1317196448323844,
   -5.370511525521616,
   -4.434221275340973,
   4.678400702683921,
   2.8233409544635233,
   -4.866968558070816,
   2.102703993684897,
   4.9095985969689675
  ],
  "name": "C5H5N5O",
  "molecular_charge": 0.0,
  "molecular_multiplicity": 1,
  "masses": [
   14.00307400443,
   12.0,
   14.00307400443,
   12.0,
   12.0,
   15.99491461957,
   14.00307400443,
   12.0,
   14.00307400443,
   14.00307400443,
   12.0,
   1.00782503223,
   1.00782503223,
   1.00782503223,
   1.00782503223,
   1.00782503223
  ],
  "real": [
   true,
   true,
   true,
   true,
   true,
   true,
   true,
   true,
   true,
   true,
   true,
   true,
   true,
   true,
   true,
   true
  ],
  "atom_labels": [
   "",
   "",
   "",
   "",
   "",
   "",
   "",
   "",
   "",
   "",
   "",
   "",
   "",
   "",
   "",
   ""
  ],
  "atomic_numbers": [
   7,
   6,
   7,
   6,
   6,
   8,
   7,
   6,
   7,
   7,
   6,
   1,
   1,
   1,
   1,
   1
  ],
  "mass_numbers": [
   14,
   12,
   14,
   12,
   12,
   16,
   14,
   12,
   14,
   14,
   12,
   1,
   1,
   1,
   1,
   1
  ],
  "fragments": [
   [
    0,
    1,
    2,
    3,
    4,
    5,
    6,
    7,
    8,
    9,
    10,
    11,
    12,
    13,
    14,
    15
   ]
  ],
  "fragment_charges": [
   0.0
  ],
  "fragment_multiplicities": [
   1
  ],
  "fix_com": false,
  "fix_orientation": false,
  "provenance": {
   "creator": "QCElemental",
   "version": "v0.19.0",
   "routine": "qcelemental.molparse.from_string"
  }
 },
 "driver": "energy",
 "model": {
  "method": "b2plyp-d3bj",
  "basis": "aug-pcseg-1"
 },
 "keywords": {
  "guess": "SAP",
  "freeze_core": "true",
  "dft_vv10_postscf": "true"
 },
 "protocols": {},
 "extras": {
  "qcvars": {
   "2-BODY DISPERSION CORRECTION ENERGY": -0.01353257,
   "B2PLYP-D3(BJ) DISPERSION CORRECTION ENERGY": -0.01353257,
   "B2PLYP-D3BJ DOUBLE-HYBRID CORRECTION ENERGY": -0.5660215610818025,
   "B2PLYP-D3BJ TOTAL ENERGY": -541.9910808836825,
   "CURRENT DIPOLE X": -3.233163131870247,
   "CURRENT DIPOLE Y": 6.293839047189044,
   "CURRENT DIPOLE Z": 0.8250276459374976,
   "CURRENT ENERGY": -541.9910808836825,
   "CURRENT REFERENCE ENERGY": -541.4250593226006,
   "DFT FUNCTIONAL TOTAL ENERGY": -541.4115267526006,
   "DFT TOTAL ENERGY": -541.9910808836825,
   "DFT VV10 ENERGY": 0.0,
   "DFT XC ENERGY": -34.57191942683481,
   "DISPERSION CORRECTION ENERGY": -0.01353257,
   "DOUBLE-HYBRID CORRECTION ENERGY": -0.5660215610818025,
   "NUCLEAR REPULSION ENERGY": 594.6969861901529,
   "ONE-ELECTRON ENERGY": -1915.380878325645,
   "PCM POLARIZATION ENERGY": 0.0,
   "PE ENERGY": 0.0,
   "SCF DIPOLE X": -3.233163131870247,
   "SCF DIPOLE Y": 6.293839047189044,
   "SCF DIPOLE Z": 0.8250276459374976,
   "SCF ITERATION ENERGY": -541.4250593226006,
   "SCF ITERATIONS": 12.0,
   "SCF TOTAL ENERGY": -541.4250593226006,
   "TWO-ELECTRON ENERGY": 813.8442848097262,
   "XC GRID RADIAL POINTS": 75.0,
   "XC GRID SPHERICAL POINTS": 302.0,
   "XC GRID TOTAL POINTS": 338288.0,
   "CURRENT DIPOLE": [
    -1.2720242530326846,
    2.476186813400135,
    0.3245908518225291
   ],
   "SCF DIPOLE": [
    -1.2720242530326846,
    2.476186813400135,
    0.3245908518225291
   ]
  }
 },
 "provenance": {
  "creator": "Psi4",
  "version": "1.4a2.dev923",
  "routine": "psi4.schema_runner.run_qcschema",
  "cpu": "Intel(R) Xeon(R) CPU E5-2680 v4 @ 2.40GHz",
  "username": "kraus",
  "nthreads": 24,
  "qcengine_version": "v0.16.0",
  "memory": 120.0,
  "hostname": "z060",
  "wall_time": 22.90169072151184
 },
 "properties": {
  "calcinfo_nbasis": 298,
  "calcinfo_nmo": 298,
  "calcinfo_nalpha": 39,
  "calcinfo_nbeta": 39,
  "calcinfo_natom": 16,
  "nuclear_repulsion_energy": 594.6969861901529,
  "return_energy": -541.9910808836825,
  "scf_one_electron_energy": -1915.380878325645,
  "scf_two_electron_energy": 813.8442848097262,
  "scf_xc_energy": -34.57191942683481,
  "scf_dispersion_correction_energy": -0.01353257,
  "scf_dipole_moment": [
   -1.2720242530326846,
   2.476186813400135,
   0.3245908518225291
  ],
  "scf_total_energy": -541.4250593226006,
  "scf_iterations": 12
 },
 "wavefunction": null,
 "return_result": -541.9910808836825,
 "stdout": "\n    -----------------------------------------------------------------------\n          Psi4: An Open-Source Ab Initio Electronic Structure Package\n                               Psi4 1.4a2.dev923 \n\n                         Git: Rev {master} 5de566e \n\n\n    D. G. A. Smith, L. A. Burns, A. C. Simmonett, R. M. Parrish,\n    M. C. Schieber, R. Galvelis, P. Kraus, H. Kruse, R. Di Remigio,\n    A. Alenaizan, A. M. James, S. Lehtola, J. P. Misiewicz, M. Scheurer,\n    R. A. Shaw, J. B. Schriber, Y. Xie, Z. L. Glick, D. A. Sirianni,\n    J. S. O'Brien, J. M. Waldrop, A. Kumar, E. G. Hohenstein,\n    B. P. Pritchard, B. R. Brooks, H. F. Schaefer III, A. Yu. Sokolov,\n    K. Patkowski, A. E. DePrince III, U. Bozkaya, R. A. King,\n    F. A. Evangelista, J. M. Turney, T. D. Crawford, C. D. Sherrill,\n    J. Chem. Phys. 152(18) 184108 (2020). https://doi.org/10.1063/5.0006002\n\n                            Additional Code Authors\n    E. T. Seidl, C. L. Janssen, E. F. Valeev, M. L. Leininger,\n    J. F. Gonthier, R. M. Richard, H. R. McAlexander, M. Saitow, X. Wang,\n    P. Verma, and M. H. Lechner\n\n             Previous Authors, Complete List of Code Contributors,\n                       and Citations for Specific Modules\n    https://github.com/psi4/psi4/blob/master/codemeta.json\n    https://github.com/psi4/psi4/graphs/contributors\n    http://psicode.org/psi4manual/master/introduction.html#citing-psifour\n\n    -----------------------------------------------------------------------\n\n\n    Psi4 started on: Monday, 17 May 2021 05:25PM\n\n    Process ID: 21880\n    Host:       z060\n    PSIDATADIR: /group/f97/kraus/miniconda3/envs/psi4-1.4a2.dev923/share/psi4\n    Memory:     111.8 GiB\n    Threads:    24\n    \n  ==> Input QCSchema <==\n\n--------------------------------------------------------------------------\n{'driver': 'energy',\n 'extras': {},\n 'id': None,\n 'keywords': {'dft_vv10_postscf': 'true', 'freeze_core': 'true', 'guess': 'SAP'},\n 'model': {'basis': 'aug-pcseg-1', 'method': 'b2plyp-d3bj'},\n 'molecule': {'atom_labels': ['', '', '', '', '', '', '', '', '', '', '', '', '', '', '', ''],\n              'atomic_numbers': [7, 6, 7, 6, 6, 8, 7, 6, 7, 7, 6, 1, 1, 1, 1, 1],\n              'fix_com': False,\n              'fix_orientation': False,\n              'fragment_charges': [0.0],\n              'fragment_multiplicities': [1],\n              'fragments': [[0, 1, 2, 3, 4, 5, 6, 7, 8, 9, 10, 11, 12, 13, 14, 15]],\n              'geometry': [1.9795091944628904, 2.10648344593581, -3.2710258001380055, 3.4421572155672493,\n                           0.044792243061317905, -3.8587306251553883, 3.037755824719273, -1.9205229274148223,\n                           -2.4471052094383907, 1.1329118902577822, -1.1570735727298587, -0.8011537541646163,\n                           -0.012262141769660673, -2.4156311722847725, 1.2151840216988745, 0.2787556815508445,\n                           -4.5585805985539505, 1.9767436502583846, -1.7942738780763943, -0.8301509530256563,\n                           2.475631347379249, -2.389537607595609, 1.6208238316931478, 1.8860367962363966,\n                           -4.060055502500329, 2.8793814312480634, 3.327897829960733, -1.346408786342888,\n                           2.8189101952334106, -0.06605029136152041, 0.4469413067165923, 1.3279162822471837,\n                           -1.28303391615637, 1.9190379584482393, 3.8072369588478554, -4.140299817848614,\n                           -2.720239679550729, -1.6994249707362563, 3.972294438741841, 4.817877834900548,\n                           0.13171964483237986, -5.37051152552165, -4.434221275340978, 4.678400702683916,\n                           2.8233409544634895, -4.8669685580708215, 2.1027039936848926, 4.909598596968934],\n              'mass_numbers': [14, 12, 14, 12, 12, 16, 14, 12, 14, 14, 12, 1, 1, 1, 1, 1],\n              'masses': [14.00307400443, 12.0, 14.00307400443, 12.0, 12.0, 15.99491461957, 14.00307400443, 12.0,\n                         14.00307400443, 14.00307400443, 12.0, 1.00782503223, 1.00782503223, 1.00782503223,\n                         1.00782503223, 1.00782503223],\n              'molecular_charge': 0.0,\n              'molecular_multiplicity': 1,\n              'name': 'C5H5N5O',\n              'provenance': {'creator': 'QCElemental',\n                             'routine': 'qcelemental.molparse.from_string',\n                             'version': 'v0.19.0'},\n              'real': [True, True, True, True, True, True, True, True, True, True, True, True, True, True, True, True],\n              'symbols': ['N', 'C', 'N', 'C', 'C', 'O', 'N', 'C', 'N', 'N', 'C', 'H', 'H', 'H', 'H', 'H'],\n              'validated': True},\n 'protocols': {},\n 'provenance': {'creator': 'QCElemental', 'routine': 'qcelemental.models.results', 'version': 'v0.16.0'},\n 'schema_name': 'qcschema_input',\n 'schema_version': 1}\n--------------------------------------------------------------------------\n\nScratch directory: /scratch/f97/kraus/scratch/tmp9avy72vb_psi_scratch/\n\n*** tstart() called on z060\n*** at Mon May 17 17:25:22 2021\n\n   => Loading Basis Set <=\n\n    Name: AUG-PCSEG-1\n    Role: ORBITAL\n    Keyword: BASIS\n    atoms 1, 3, 7, 9-10 entry N          line   139 file /group/f97/kraus/miniconda3/envs/psi4-1.4a2.dev923/share/psi4/basis/aug-pcseg-1.gbs \n    atoms 2, 4-5, 8, 11 entry C          line   112 file /group/f97/kraus/miniconda3/envs/psi4-1.4a2.dev923/share/psi4/basis/aug-pcseg-1.gbs \n    atoms 6             entry O          line   166 file /group/f97/kraus/miniconda3/envs/psi4-1.4a2.dev923/share/psi4/basis/aug-pcseg-1.gbs \n    atoms 12-16         entry H          line    13 file /group/f97/kraus/miniconda3/envs/psi4-1.4a2.dev923/share/psi4/basis/aug-pcseg-1.gbs \n\n   => B2PLYP-D3(BJ): Empirical Dispersion <=\n\n    Grimme's -D3 (BJ-damping) Dispersion Correction\n    Grimme S.; Ehrlich S.; Goerigk L. (2011), J. Comput. Chem., 32: 1456\n    Parametrisation from:    L. Goerigk, S. Grimme, Phys. Chem. Chem. Phys. 13, 6670-6688, 2011\n\n        s6 =       0.640000\n        s8 =       0.914700\n        a1 =       0.306500\n        a2 =       5.057000\n\n\n         ---------------------------------------------------------\n                                   SCF\n               by Justin Turney, Rob Parrish, Andy Simmonett\n                          and Daniel G. A. Smith\n                              RKS Reference\n                       24 Threads, 114440 MiB Core\n         ---------------------------------------------------------\n\n  ==> Geometry <==\n\n    Molecular point group: c1\n    Full point group: C1\n\n    Geometry (in Bohr), charge = 0, multiplicity = 1:\n\n       Center              X                  Y                   Z               Mass       \n    ------------   -----------------  -----------------  -----------------  -----------------\n         N            1.979509194463     2.106483445936    -3.271025800138    14.003074004430\n         C            3.442157215567     0.044792243061    -3.858730625155    12.000000000000\n         N            3.037755824719    -1.920522927415    -2.447105209438    14.003074004430\n         C            1.132911890258    -1.157073572730    -0.801153754165    12.000000000000\n         C           -0.012262141770    -2.415631172285     1.215184021699    12.000000000000\n         O            0.278755681551    -4.558580598554     1.976743650258    15.994914619570\n         N           -1.794273878076    -0.830150953026     2.475631347379    14.003074004430\n         C           -2.389537607596     1.620823831693     1.886036796236    12.000000000000\n         N           -4.060055502500     2.879381431248     3.327897829961    14.003074004430\n         N           -1.346408786343     2.818910195233    -0.066050291361    14.003074004430\n         C            0.446941306717     1.327916282247    -1.283033916156    12.000000000000\n         H            1.919037958448     3.807236958848    -4.140299817849     1.007825032230\n         H           -2.720239679551    -1.699424970736     3.972294438742     1.007825032230\n         H            4.817877834901     0.131719644832    -5.370511525522     1.007825032230\n         H           -4.434221275341     4.678400702684     2.823340954464     1.007825032230\n         H           -4.866968558071     2.102703993685     4.909598596969     1.007825032230\n\n  Running in c1 symmetry.\n\n  Rotational constants: A =      0.06486  B =      0.03693  C =      0.02354 [cm^-1]\n  Rotational constants: A =   1944.44089  B =   1107.15421  C =    705.76789 [MHz]\n  Nuclear repulsion =  594.696986190152870\n\n  Charge       = 0\n  Multiplicity = 1\n  Electrons    = 78\n  Nalpha       = 39\n  Nbeta        = 39\n\n  ==> Algorithm <==\n\n  SCF Algorithm Type is DF.\n  DIIS enabled.\n  MOM disabled.\n  Fractional occupation disabled.\n  Guess Type is SAP.\n  Energy threshold   = 1.00e-06\n  Density threshold  = 1.00e-06\n  Integral threshold = 0.00e+00\n\n  ==> Primary Basis <==\n\n  Basis Set: AUG-PCSEG-1\n    Blend: AUG-PCSEG-1\n    Number of shells: 124\n    Number of basis function: 298\n    Number of Cartesian functions: 320\n    Spherical Harmonics?: true\n    Max angular momentum: 2\n\n  ==> DFT Potential <==\n\n   => Composite Functional: B2PLYP-D3BJ <= \n\n    B2PLYP Double Hybrid Exchange-Correlation Functional\n\n    S. Grimme, J. Chem. Phys., 124, 034108, 2006\n\n\n    Deriv               =              1\n    GGA                 =           TRUE\n    Meta                =          FALSE\n\n    Exchange Hybrid     =           TRUE\n    MP2 Hybrid          =           TRUE\n\n   => Exchange Functionals <=\n\n    0.4700     XC_GGA_X_B88\n\n   => Exact (HF) Exchange <=\n\n    0.5300               HF \n\n   => Correlation Functionals <=\n\n    0.7300     XC_GGA_C_LYP\n\n   => MP2 Correlation <=\n\n    0.2700       MP2 \n\n   => LibXC Density Thresholds  <==\n\n    XC_GGA_C_LYP:  1.00E-32 \n    XC_GGA_X_B88:  1.00E-25 \n\n   => Molecular Quadrature <=\n\n    Radial Scheme          =       TREUTLER\n    Pruning Scheme         =           NONE\n    Nuclear Scheme         =       TREUTLER\n\n    BS radius alpha        =              1\n    Pruning alpha          =              1\n    Radial Points          =             75\n    Spherical Points       =            302\n    Total Points           =         338290\n    Total Blocks           =           2516\n    Max Points             =            256\n    Max Functions          =            288\n    Weights Tolerance      =       1.00E-15\n\n   => Loading Basis Set <=\n\n    Name: (AUG-PCSEG-1 AUX)\n    Role: JKFIT\n    Keyword: DF_BASIS_SCF\n    atoms 1, 3, 7, 9-10 entry N          line   258 file /group/f97/kraus/miniconda3/envs/psi4-1.4a2.dev923/share/psi4/basis/def2-universal-jkfit.gbs \n    atoms 2, 4-5, 8, 11 entry C          line   198 file /group/f97/kraus/miniconda3/envs/psi4-1.4a2.dev923/share/psi4/basis/def2-universal-jkfit.gbs \n    atoms 6             entry O          line   318 file /group/f97/kraus/miniconda3/envs/psi4-1.4a2.dev923/share/psi4/basis/def2-universal-jkfit.gbs \n    atoms 12-16         entry H          line    18 file /group/f97/kraus/miniconda3/envs/psi4-1.4a2.dev923/share/psi4/basis/def2-universal-jkfit.gbs \n\n  ==> Integral Setup <==\n\n  DFHelper Memory: AOs need 0.631 GiB; user supplied 81.496 GiB. Using in-core AOs.\n\n  ==> MemDFJK: Density-Fitted J/K Matrices <==\n\n    J tasked:                   Yes\n    K tasked:                   Yes\n    wK tasked:                   No\n    OpenMP threads:              24\n    Memory [MiB]:             83451\n    Algorithm:                 Core\n    Schwarz Cutoff:           1E-12\n    Mask sparsity (%):       3.6350\n    Fitting Condition:        1E-10\n\n   => Auxiliary Basis Set <=\n\n  Basis Set: (AUG-PCSEG-1 AUX)\n    Blend: DEF2-UNIVERSAL-JKFIT\n    Number of shells: 305\n    Number of basis function: 927\n    Number of Cartesian functions: 1103\n    Spherical Harmonics?: true\n    Max angular momentum: 4\n\n  Cached 100.0% of DFT collocation blocks in 2.323 [GiB].\n\n  Minimum eigenvalue in the overlap matrix is 3.1171775665E-06.\n  Reciprocal condition number of the overlap matrix is 1.9712429770E-07.\n    Using symmetric orthogonalization.\n\n  ==> Pre-Iterations <==\n\n  SCF Guess: Superposition of Atomic Potentials (doi:10.1021/acs.jctc.8b01089).\n\n  ==> SAP guess <==\n\n   => Molecular Quadrature <=\n\n    Radial Scheme          =       TREUTLER\n    Pruning Scheme         =           NONE\n    Nuclear Scheme         =       TREUTLER\n\n    BS radius alpha        =              1\n    Pruning alpha          =              1\n    Radial Points          =             75\n    Spherical Points       =            302\n    Total Points           =         338288\n    Total Blocks           =           2519\n    Max Points             =            256\n    Max Functions          =            288\n    Weights Tolerance      =       1.00E-15\n\n   -------------------------------------------------------\n    Irrep   Nso     Nmo     Nalpha   Nbeta   Ndocc  Nsocc\n   -------------------------------------------------------\n     A        298     298      39      39      39       0\n   -------------------------------------------------------\n    Total     298     298      39      39      39       0\n   -------------------------------------------------------\n\n  ==> Iterations <==\n\n                           Total Energy        Delta E     RMS |[F,P]|\n\n   @DF-RKS iter   1:  -536.66259459252763   -5.36663e+02   1.05024e-02 DIIS\n   @DF-RKS iter   2:  -495.95763336789912    4.07050e+01   2.28636e-02 DIIS\n   @DF-RKS iter   3:  -540.50517371948138   -4.45475e+01   4.46325e-03 DIIS\n   @DF-RKS iter   4:  -540.96423215922755   -4.59058e-01   3.34938e-03 DIIS\n   @DF-RKS iter   5:  -541.40710739937833   -4.42875e-01   6.32411e-04 DIIS\n   @DF-RKS iter   6:  -541.41979706771360   -1.26897e-02   3.57631e-04 DIIS\n   @DF-RKS iter   7:  -541.42483235497502   -5.03529e-03   6.28991e-05 DIIS\n   @DF-RKS iter   8:  -541.42500074797317   -1.68393e-04   2.83621e-05 DIIS\n   @DF-RKS iter   9:  -541.42505209479123   -5.13468e-05   9.97958e-06 DIIS\n   @DF-RKS iter  10:  -541.42505811519800   -6.02041e-06   4.47549e-06 DIIS\n   @DF-RKS iter  11:  -541.42505924014927   -1.12495e-06   9.16786e-07 DIIS\n   @DF-RKS iter  12:  -541.42505932260065   -8.24514e-08   3.41839e-07 DIIS\n  Energy and wave function converged.\n\n\n  ==> Post-Iterations <==\n\n    Orbital Energies [Eh]\n    ---------------------\n\n    Doubly Occupied:                                                      \n\n       1A    -19.685026     2A    -14.903693     3A    -14.901097  \n       4A    -14.891688     5A    -14.841056     6A    -14.831793  \n       7A    -10.772425     8A    -10.735442     9A    -10.706369  \n      10A    -10.689804    11A    -10.632786    12A     -1.202135  \n      13A     -1.169983    14A     -1.152647    15A     -1.054440  \n      16A     -1.034018    17A     -1.006773    18A     -0.886544  \n      19A     -0.778840    20A     -0.762455    21A     -0.719701  \n      22A     -0.693109    23A     -0.639062    24A     -0.632608  \n      25A     -0.607739    26A     -0.577278    27A     -0.556763  \n      28A     -0.534911    29A     -0.507446    30A     -0.506376  \n      31A     -0.503439    32A     -0.465003    33A     -0.395580  \n      34A     -0.373892    35A     -0.352649    36A     -0.344680  \n      37A     -0.340219    38A     -0.336306    39A     -0.253343  \n\n    Virtual:                                                              \n\n      40A     -0.009843    41A      0.004773    42A      0.017647  \n      43A      0.030922    44A      0.034657    45A      0.037544  \n      46A      0.038201    47A      0.054660    48A      0.058669  \n      49A      0.062355    50A      0.063493    51A      0.073005  \n      52A      0.077608    53A      0.080791    54A      0.084607  \n      55A      0.094150    56A      0.095349    57A      0.097008  \n      58A      0.100655    59A      0.110909    60A      0.114963  \n      61A      0.117808    62A      0.118934    63A      0.122405  \n      64A      0.131003    65A      0.146089    66A      0.151449  \n      67A      0.152163    68A      0.154595    69A      0.158486  \n      70A      0.168358    71A      0.171198    72A      0.177399  \n      73A      0.186275    74A      0.187436    75A      0.190443  \n      76A      0.194777    77A      0.196078    78A      0.205085  \n      79A      0.218516    80A      0.226557    81A      0.231183  \n      82A      0.231744    83A      0.234817    84A      0.241262  \n      85A      0.246823    86A      0.249487    87A      0.251714  \n      88A      0.254766    89A      0.265865    90A      0.269375  \n      91A      0.271071    92A      0.273735    93A      0.279965  \n      94A      0.283582    95A      0.285622    96A      0.287845  \n      97A      0.291906    98A      0.295710    99A      0.301444  \n     100A      0.305288   101A      0.314153   102A      0.317811  \n     103A      0.323891   104A      0.329618   105A      0.337411  \n     106A      0.342746   107A      0.351155   108A      0.358870  \n     109A      0.363463   110A      0.368291   111A      0.375024  \n     112A      0.381309   113A      0.386237   114A      0.389065  \n     115A      0.398807   116A      0.407916   117A      0.411234  \n     118A      0.415651   119A      0.422229   120A      0.423250  \n     121A      0.432419   122A      0.436017   123A      0.439111  \n     124A      0.454496   125A      0.461823   126A      0.464438  \n     127A      0.477998   128A      0.494020   129A      0.503138  \n     130A      0.507453   131A      0.513753   132A      0.517063  \n     133A      0.524066   134A      0.524677   135A      0.531300  \n     136A      0.541175   137A      0.546463   138A      0.555995  \n     139A      0.563443   140A      0.569288   141A      0.579840  \n     142A      0.595780   143A      0.600223   144A      0.608439  \n     145A      0.610813   146A      0.623189   147A      0.630604  \n     148A      0.638059   149A      0.639337   150A      0.649877  \n     151A      0.665085   152A      0.671721   153A      0.679285  \n     154A      0.687532   155A      0.688146   156A      0.697054  \n     157A      0.705357   158A      0.713846   159A      0.723527  \n     160A      0.729387   161A      0.732845   162A      0.739218  \n     163A      0.746088   164A      0.747452   165A      0.759753  \n     166A      0.773648   167A      0.786345   168A      0.802511  \n     169A      0.812450   170A      0.822599   171A      0.828360  \n     172A      0.833982   173A      0.837250   174A      0.845830  \n     175A      0.864631   176A      0.875040   177A      0.889346  \n     178A      0.896720   179A      0.905310   180A      0.915133  \n     181A      0.920032   182A      0.931003   183A      0.974976  \n     184A      1.003179   185A      1.032885   186A      1.044489  \n     187A      1.054235   188A      1.072110   189A      1.107814  \n     190A      1.120776   191A      1.142533   192A      1.170086  \n     193A      1.183592   194A      1.231184   195A      1.235032  \n     196A      1.252112   197A      1.265336   198A      1.270610  \n     199A      1.288250   200A      1.326448   201A      1.353456  \n     202A      1.369614   203A      1.392133   204A      1.400575  \n     205A      1.413531   206A      1.456936   207A      1.486351  \n     208A      1.522187   209A      1.543021   210A      1.570556  \n     211A      1.584424   212A      1.592194   213A      1.639181  \n     214A      1.646525   215A      1.693665   216A      1.706028  \n     217A      1.715273   218A      1.726071   219A      1.731184  \n     220A      1.756455   221A      1.773923   222A      1.790067  \n     223A      1.812680   224A      1.824094   225A      1.828790  \n     226A      1.847481   227A      1.871751   228A      1.874759  \n     229A      1.916871   230A      1.921493   231A      1.975122  \n     232A      1.990278   233A      1.997543   234A      2.032760  \n     235A      2.058533   236A      2.080555   237A      2.100424  \n     238A      2.107325   239A      2.130206   240A      2.136925  \n     241A      2.163199   242A      2.192017   243A      2.196850  \n     244A      2.199542   245A      2.228518   246A      2.243813  \n     247A      2.247249   248A      2.262982   249A      2.273489  \n     250A      2.312101   251A      2.357012   252A      2.363721  \n     253A      2.373424   254A      2.387152   255A      2.418552  \n     256A      2.462711   257A      2.485921   258A      2.501088  \n     259A      2.546935   260A      2.550899   261A      2.582800  \n     262A      2.600282   263A      2.622822   264A      2.636579  \n     265A      2.682545   266A      2.706496   267A      2.711107  \n     268A      2.726547   269A      2.728217   270A      2.769587  \n     271A      2.786761   272A      2.801531   273A      2.812961  \n     274A      2.821594   275A      2.836581   276A      2.897666  \n     277A      2.942614   278A      2.961855   279A      2.985318  \n     280A      2.990359   281A      3.061416   282A      3.108790  \n     283A      3.132609   284A      3.152790   285A      3.224622  \n     286A      3.243348   287A      3.279856   288A      3.333980  \n     289A      3.386994   290A      3.403924   291A      3.461756  \n     292A      3.580305   293A      3.605387   294A      3.621081  \n     295A      3.690907   296A      3.825945   297A      3.858542  \n     298A      3.974571  \n\n    Final Occupation by Irrep:\n              A \n    DOCC [    39 ]\n\n  @DF-RKS Final Energy:  -541.42505932260065\n\n   => Energetics <=\n\n    Nuclear Repulsion Energy =            594.6969861901528702\n    One-Electron Energy =               -1915.3808783256449715\n    Two-Electron Energy =                 813.8442848097262186\n    DFT Exchange-Correlation Energy =     -34.5719194268348105\n    Empirical Dispersion Energy =          -0.0135325700000000\n    VV10 Nonlocal Energy =                  0.0000000000000000\n    Total Energy =                       -541.4250593226006458\n\nComputation Completed\n\n\nProperties will be evaluated at   0.000000,   0.000000,   0.000000 [a0]\n\nProperties computed using the SCF density matrix\n\n  Nuclear Dipole Moment: [e a0]\n     X:    -2.6175      Y:     4.4557      Z:     1.0936\n\n  Electronic Dipole Moment: [e a0]\n     X:     1.3455      Y:    -1.9795      Z:    -0.7690\n\n  Dipole Moment: [e a0]\n     X:    -1.2720      Y:     2.4762      Z:     0.3246     Total:     2.8027\n\n  Dipole Moment: [D]\n     X:    -3.2332      Y:     6.2938      Z:     0.8250     Total:     7.1237\n\n\n*** tstop() called on z060 at Mon May 17 17:25:35 2021\nModule time:\n\tuser time   =     165.47 seconds =       2.76 minutes\n\tsystem time =      12.31 seconds =       0.21 minutes\n\ttotal time  =         13 seconds =       0.22 minutes\nTotal time:\n\tuser time   =     165.47 seconds =       2.76 minutes\n\tsystem time =      12.31 seconds =       0.21 minutes\n\ttotal time  =         13 seconds =       0.22 minutes\n\n*** tstart() called on z060\n*** at Mon May 17 17:25:35 2021\n\n   => Loading Basis Set <=\n\n    Name: (AUG-PCSEG-1 AUX)\n    Role: RIFIT\n    Keyword: DF_BASIS_MP2\n    atoms 1, 3, 7, 9-10 entry N          line   233 file /group/f97/kraus/miniconda3/envs/psi4-1.4a2.dev923/share/psi4/basis/def2-svpd-ri.gbs \n    atoms 2, 4-5, 8, 11 entry C          line   185 file /group/f97/kraus/miniconda3/envs/psi4-1.4a2.dev923/share/psi4/basis/def2-svpd-ri.gbs \n    atoms 6             entry O          line   281 file /group/f97/kraus/miniconda3/envs/psi4-1.4a2.dev923/share/psi4/basis/def2-svpd-ri.gbs \n    atoms 12-16         entry H          line    22 file /group/f97/kraus/miniconda3/envs/psi4-1.4a2.dev923/share/psi4/basis/def2-svpd-ri.gbs \n\n\t --------------------------------------------------------\n\t                          DF-MP2                         \n\t      2nd-Order Density-Fitted Moller-Plesset Theory     \n\t              RMP2 Wavefunction,  24 Threads             \n\t                                                         \n\t        Rob Parrish, Justin Turney, Andy Simmonett,      \n\t           Ed Hohenstein, and C. David Sherrill          \n\t --------------------------------------------------------\n\n   => Auxiliary Basis Set <=\n\n  Basis Set: (AUG-PCSEG-1 AUX)\n    Blend: DEF2-SVPD-RI\n    Number of shells: 265\n    Number of basis function: 819\n    Number of Cartesian functions: 950\n    Spherical Harmonics?: true\n    Max angular momentum: 3\n\n\t --------------------------------------------------------\n\t                 NBF =   298, NAUX =   819\n\t --------------------------------------------------------\n\t   CLASS    FOCC     OCC    AOCC    AVIR     VIR    FVIR\n\t   PAIRS      11      39      28     259     259       0\n\t --------------------------------------------------------\n\n\t-----------------------------------------------------------\n\t ==================> DF-MP2 Energies <==================== \n\t-----------------------------------------------------------\n\t Reference Energy          =    -541.4250593226006458 [Eh]\n\t Singles Energy            =      -0.0000000000000000 [Eh]\n\t Same-Spin Energy          =      -0.5898905083049332 [Eh]\n\t Opposite-Spin Energy      =      -1.5064856438498906 [Eh]\n\t Correlation Energy        =      -2.0963761521548236 [Eh]\n\t Total Energy              =    -543.5214354747554353 [Eh]\n\t-----------------------------------------------------------\n\t ================> DF-SCS-MP2 Energies <================== \n\t-----------------------------------------------------------\n\t SCS Same-Spin Scale       =       0.3333333333333333 [-]\n\t SCS Opposite-Spin Scale   =       1.2000000000000000 [-]\n\t SCS Same-Spin Energy      =      -0.1966301694349777 [Eh]\n\t SCS Opposite-Spin Energy  =      -1.8077827726198685 [Eh]\n\t SCS Correlation Energy    =      -2.0044129420548464 [Eh]\n\t SCS Total Energy          =    -543.4294722646554874 [Eh]\n\t-----------------------------------------------------------\n\n\n\n    B2PLYP-D3BJ Energy Summary\n    --------------------------\n    DFT Reference Energy                  =  -541.4250593226006458\n    Scaled MP2 Correlation                =    -0.5660215610818025\n    @Final double-hybrid DFT total energy =  -541.9910808836824572\n\n\n*** tstop() called on z060 at Mon May 17 17:25:38 2021\nModule time:\n\tuser time   =      34.14 seconds =       0.57 minutes\n\tsystem time =       1.97 seconds =       0.03 minutes\n\ttotal time  =          3 seconds =       0.05 minutes\nTotal time:\n\tuser time   =     199.62 seconds =       3.33 minutes\n\tsystem time =      14.28 seconds =       0.24 minutes\n\ttotal time  =         16 seconds =       0.27 minutes\n\n    Psi4 stopped on: Monday, 17 May 2021 05:25PM\n    Psi4 wall time for execution: 0:00:16.02\n\n*** Psi4 exiting successfully. Buy a developer a beer!\n",
 "stderr": null,
 "success": true,
 "error": null,
 "tag": "b2plyp-d3bj aug-pcseg-1 ggg_a"
}